54
Lattice="8.45590719458525 0.0 0.0 0.0 8.45590719458525 0.0 0.0 0.0 12.192276788903998" Properties=species:S:1:pos:R:3:forces:R:3 virial="120.41431439548624 1.1960686724332905 -2.9454694870837823 1.1960686724332905 78.3958354257547 -2.98657776724516 -2.9454694870837823 -2.98657776724516 60.957877099758356" config_type=TiAl_T5000 energy=-45948.6377607 pbc="T T T"
Ti      -0.17298249       4.51237649       2.35746206       1.31968000      -1.76275000       2.04526000
Al      -0.23509113      -3.61596577      -0.13346885       0.20072000       1.70460000      -1.32002000
Ti       4.59253004       0.34393557       7.98575841       1.16692000       3.32997000      -1.25257000
Al       1.12386617      -1.12848309       5.37976898       1.37720000      -5.19451000      -4.45199000
Ti       3.26039487       4.45294838       8.90718973       0.72710000      -0.89265000      -0.72864000
Al      -2.47668448       2.57204175       9.20090168      -2.12036000      -0.31778000      -0.49411000
Ti      -0.37246580      -2.28332325      -2.16728693       0.15264000       1.25311000      -1.19080000
Al       2.01559232      -0.16474644      -0.56267357      -0.22557000      -0.47455000       0.80492000
Ti       3.23117971       5.44453879       6.10333184      -1.24252000      -1.01376000       0.01516000
Al       3.56856195      -0.27315117       5.82292166       0.21725000       0.05507000      -0.24115000
Ti       2.00468420       3.82812448      12.91523003       0.27457000       2.25122000      -0.33655000
Al      -1.00681950       1.15926260       8.15326810       0.82558000      -0.25319000      -1.57647000
Ti       1.27033094       8.97041532      -2.86338059      -0.77440000       0.16854000      -0.84570000
Al       0.25841252       4.88499450      -6.53588943      -0.13398000      -1.40303000      -0.76296000
Ti       4.48839554       5.93245309       3.15973826      -0.85838000       1.23787000       0.48959000
Al       0.83009104      10.36859958       0.96890804      12.56781000     -10.50899000       3.99872000
Ti      -0.18543804       3.92146079       8.32775178       1.30849000      -0.50863000       0.48604000
Al      -0.74493160       8.23633265      12.66806820       5.02451000       1.70090000       4.45842000
Ti       6.39538864       0.59158372       5.53775650      -1.03975000      -0.22663000       1.32104000
Al      -0.65990745      -5.63914304       0.67953655      -8.96466000       5.88005000      -1.21840000
Ti       9.27695887      -1.62467573       1.83599838      -0.33930000       1.17966000      -0.46095000
Al      -2.81294209      -4.25672059       1.71951337       0.57322000       2.96223000      -1.13344000
Ti       3.61516246       2.15808281      12.11455102      -0.07193000       0.11896000       1.50074000
Al       5.92554461       3.19798182      11.66789916      -0.96818000      -0.41420000      -2.43040000
Ti       2.90353022       8.44062737       3.39820700      -1.24687000       0.64820000       0.59961000
Al       2.55313434       2.87674191       2.88091308      -5.39321000      -0.55340000      -1.94571000
Ti       4.06171046       2.38484487       5.74196495       0.27462000      -0.04213000       0.42813000
Al       0.78838651      -2.20082742       7.63963187       2.94004000       0.07217000       2.00060000
Ti       6.24383342       4.08431310       6.69482795      -0.92594000      -0.44146000       0.45799000
Al       1.52055814       2.42362366       4.87566710      -1.63606000      -0.23418000       1.56251000
Ti       1.93727371       5.86116134       3.64173554       1.11498000      -2.39466000      -0.90950000
Al      -3.14541990       6.93032624      -2.86739185      -4.67402000      -3.27080000      -1.16286000
Ti      -0.35232383       9.11903635       3.66234049       1.42770000      -0.00249000      -1.05660000
Al       0.52235521       0.42717552       6.42764640      -2.53445000       5.48035000       3.38268000
Ti       4.08565759       9.39900298      10.18871994      -0.31925000      -0.55807000       0.15152000
Al       2.95276051       7.10261535       8.72275716      -0.84446000      -0.59529000      -0.10663000
Ti      11.31380934      -2.64017099       0.57985249       1.22823000       2.03268000       2.44843000
Al       5.55805089       8.04577033      -0.09311242      -1.83384000       2.15720000      -4.14795000
Ti      10.52322430       2.10619736       7.46157586       1.44122000       1.08201000       1.17332000
Al       3.98690105      -0.18744209       1.24364881      -3.77853000      -0.18586000       2.19438000
Ti       9.97260944       2.86327165      10.64578402      -0.93344000      -0.18069000      -1.14273000
Al       7.09371128      -1.71416459       6.92849294      20.77918000       2.79789000       1.90343000
Ti       6.98110396       5.88857539       3.58389538       0.51742000       1.33802000       1.58749000
Al       5.97901977       1.93850827       1.69108098      -0.69444000      -3.28713000       0.86818000
Ti       5.88448273       8.32705608       3.11776025      -0.97798000      -0.74764000      -0.36773000
Al       6.58684729      -0.18477848      10.08263494       2.91038000       3.17498000      -1.17154000
Ti       4.64129525       5.37027901      11.63632116      -0.65252000       0.60811000      -0.88463000
Al       7.89642210       1.14092173      11.21588269       2.66393000       6.26528000      -5.27142000
Ti       6.89425334      11.52822578       4.49253700       0.54180000      -0.39185000      -0.87902000
Al       4.52094233      11.51331801       3.34306133       4.51339000      -0.30338000       2.94753000
Ti       6.22079953       4.87613271       9.60238116       1.04687000      -0.89976000       0.08242000
Al       6.70728478       6.57027371       0.93943931      -1.78136000      -8.58552000       4.59461000
Ti       1.82533441       5.66774092      10.78765335       0.35860000       0.50566000      -1.42251000
Al       5.46743739       6.55432587       6.80080322     -22.52862000      -2.35977000      -2.58976000
54
Lattice="8.124302990876025 0.0 0.0 0.0 8.124302990876025 0.0 0.0 0.0 11.714148287378352" Properties=species:S:1:pos:R:3:forces:R:3 virial="152.33212883085525 20.536759737801837 11.53988628868806 20.536759737801837 169.72706188016394 22.827907375386168 11.53988628868806 22.827907375386168 166.80975238155762" config_type=TiAl_T5000 energy=-45938.9316358 pbc="T T T"
Ti       0.43722561      -0.48127558       1.46976247       0.95357000       1.47648000       1.69897000
Al      -4.46266338       1.87166067       2.57607006       5.68287000       0.80209000       5.08778000
Ti      -0.58048957      -2.29893402       3.09241801      -0.18854000       0.73631000       0.41630000
Al      -0.46047737      -3.69670410      -4.30226696       0.69402000      -2.87016000       8.93316000
Ti       4.90753397       2.59368373      11.75335554       0.66819000       0.65318000      -0.00780000
Al      -2.22413356      -0.83068561       8.49574462      -4.16065000       3.99275000       0.27846000
Ti      -1.65134583       0.77781264      -1.36971193       0.44512000       2.31764000      -1.61934000
Al       1.15521902       5.47012570      -0.31480602      -1.71203000      -0.62823000       8.30108000
Ti      -2.22445853       1.62828093       7.27092499       0.84357000       0.33303000      -0.19960000
Al      -4.34148128       3.51817254       3.68568105      -0.29450000       7.15950000       2.92509000
Ti       6.33986483       3.35837562       9.32550460       0.28519000      -1.56929000      -0.00394000
Al       0.32383472       1.77929547       5.91787057       1.63966000       4.23169000      10.34838000
Ti       4.30552312       8.45081873      -0.75331345      -1.26734000      -2.60257000      -2.60734000
Al       0.14232154       1.85814996       0.20466960      -3.97613000      -3.04452000      -4.46887000
Ti       0.55225762       6.47411082       5.98346980      -1.57323000      -1.33555000      -0.80944000
Al      -0.49957964       3.92805175       5.67384144      -0.37007000      -1.67548000     -11.78802000
Ti      -2.21639110       8.47009770      12.73473174      -0.39931000       1.96184000       3.01763000
Al       2.31175417       2.17912492       6.65276938       2.54290000      -4.43558000       4.37081000
Ti       2.53210964      10.16213816      -1.26287890      -0.70083000      -0.40757000       0.12944000
Al       5.00069535      -1.08501691       2.86326584      -2.16234000       7.43762000       6.68983000
Ti       2.00447678      -0.18835384       3.74671176      -0.39364000      -0.21314000      -0.24043000
Al      -0.56248612      -1.92034150      -3.40769259       3.10253000       6.94647000      -2.72093000
Ti       8.09747654       1.10735062       8.51802493       1.45138000      -1.08087000      -0.15258000
Al       1.81372627      -1.02975540       8.78294039      -7.32627000       5.56866000      -2.17253000
Ti       5.71222181       2.62625406       5.07924298      -0.47699000      -0.14385000      -1.26986000
Al       6.10912650       3.21158572       2.25712895      -2.76286000      -1.63359000       2.93133000
Ti       9.46317188       7.83021135      10.87741839       0.09077000       2.04726000       1.02086000
Al       2.32731221      -0.23592976       6.54470636       0.89784000       1.22598000      -1.09225000
Ti       3.99109634       3.49782116       8.94468935      -0.66765000       0.44580000      -0.31181000
Al       1.31466659       4.62984529       4.40566774      -0.02232000       2.71709000      -1.90487000
Ti       3.30810244       6.68136179       0.89061498       0.02741000      -1.40530000      -1.10289000
Al       7.23403374       4.29630203       0.72367665       1.71543000       1.58820000      -3.27446000
Ti       4.17022910       9.07295348       4.92988759      -0.51238000      -0.40827000       1.06540000
Al       1.22314631       3.00060569       1.49914156       3.35365000       3.32513000       3.86714000
Ti       3.93165894       8.88471338       8.24852923      -0.57585000       1.72853000       0.33294000
Al       2.66779362       5.56929094      10.10918112       1.18021000      -5.67546000       2.51679000
Ti       3.78691636      -1.94525061       5.20705606      -3.23009000       1.47467000      -2.20919000
Al       7.93253694       5.05022110      -1.81964065      -1.60399000      -3.44244000       3.14907000
Ti       9.68184561      -2.63347657       2.18817947       1.78187000       0.45820000      -0.18762000
Al       2.77435198      -4.11443139       5.91986198       4.25801000       1.28903000      -1.63896000
Ti      11.43546829       4.12249069      12.19495550      -0.20576000      -0.95551000       1.12188000
Al      10.68768307       5.52827134       7.40803909      -2.70769000      -2.40442000      -1.34315000
Ti       7.11894487       7.06850920      -0.23141300      -0.70143000      -4.05380000      -1.28661000
Al      -0.77904754       0.60007727       5.09163655      -6.62672000      -8.29693000      -6.33206000
Ti       5.10092488       5.16328703      10.66832084       1.78428000       1.15271000       0.31006000
Al       1.33009464       2.33237365       4.23693715       5.73319000       0.55021000      -3.54926000
Ti       5.09937313       5.16083349       6.96906310       1.47897000      -2.15050000       3.14011000
Al       3.75497972      -1.60881510       8.80866466      11.29126000       2.99656000      -1.47876000
Ti       5.75288394       5.05674492       4.61942752       0.27235000      -1.44305000      -2.94437000
Al       2.89341364       9.06022270       1.22506563      -6.27335000      -5.83948000      -9.58727000
Ti       6.09597326       6.90574691       5.67135804      -0.48011000       1.32232000       1.81443000
Al       7.69328434       1.75356581       2.97447996      -0.84397000      -2.63816000      -1.39703000
Ti       9.50788804      11.48232927       8.90883234       0.20570000      -0.20949000      -0.27276000
Al       5.37141542       5.41501855      13.58923200      -0.16391000      -5.37572000      -5.49293000
54
Lattice="8.45590719458525 0.0 0.0 0.0 8.45590719458525 0.0 0.0 0.0 12.192276788903998" Properties=species:S:1:pos:R:3:forces:R:3 virial="99.31571133163563 5.049185044192039 -21.453396632073314 5.049185044192039 40.88705721676845 0.6693820957952107 -21.453396632073314 0.6693820957952107 109.18553461768771" config_type=TiAl_T5000 energy=-45949.1628392 pbc="T T T"
Ti       2.84654586       2.00883605      -4.09787300       0.07096000       0.63844000       0.40572000
Al       2.93971305      -0.05822738       3.12150328       6.30199000       1.35847000       5.68415000
Ti       1.07747706       6.89962284       5.43914537       0.04230000      -0.78770000      -0.05546000
Al       3.14915741       3.12280035       3.58323699       3.14322000       0.04333000       1.28233000
Ti      -4.44505056      -1.97354109      10.77713141      -0.62398000       0.79438000       1.09038000
Al       0.43287480       1.87661103       2.58358003       5.89925000      -3.67357000      -7.01109000
Ti      -1.47022013       3.51839306       1.63569147       0.22637000       0.25322000       0.99221000
Al      -0.03597143       1.66852806      -0.16570523      -0.83070000      -0.47544000      -0.36330000
Ti      -2.37025843       6.24230290       8.54149458      -1.92000000       0.16089000       0.75663000
Al       3.28917032      -0.28371260       6.01926609      -7.09984000      -2.92508000       3.09588000
Ti       0.56827924       2.05470089       9.57119332       0.07540000       0.09105000      -0.83313000
Al       0.35308486       1.86147495       6.73658650       0.06205000       0.15253000       1.07715000
Ti      -1.01239194      16.58942447       9.71986594       0.46789000      -0.47916000       0.44518000
Al       4.87209924       8.62860219      -6.97150729       8.95528000       8.72215000      -5.47200000
Ti      -2.11122863       3.57231638       7.95694806      -0.63874000      -1.18609000      -1.19411000
Al       4.03689237       7.74016539      -3.62055755       2.54668000      -0.45392000      -0.59364000
Ti       1.38117943       7.78744236      10.82758306      -0.55661000      -0.04004000       0.50601000
Al      -5.71821423       3.34493703      10.98710681      -7.67210000      -4.50625000       4.95359000
Ti       7.62842903      -0.06830682       4.55843625       0.96866000       1.32097000       0.26128000
Al      -1.63412098       2.20908884       5.35070259      -9.15276000      -2.24425000      10.34109000
Ti       8.36905657       5.86324995       7.91032480       1.65413000      -0.73492000       0.94109000
Al       4.14305629      -1.15477251       1.33245735      -0.11709000      -1.22669000      -0.66696000
Ti       4.47625286       4.03652031      13.28214441      -1.13330000       2.22025000       1.09591000
Al       2.78795488      -3.23619407       7.46622111       4.75781000       3.43757000       2.24227000
Ti       3.06957887       5.98358596       4.10427394       1.17559000      -0.98519000      -0.15632000
Al       7.94088326       2.72585470       3.98669163       2.06996000       8.48599000      -0.82970000
Ti       8.07176379       6.40193351       3.07217333       1.14167000      -2.94599000      -0.76604000
Al       5.20931236       1.64830153       1.81768559      -0.26398000      -7.25324000     -18.29614000
Ti      -0.02912214       4.35622125      12.37128380       1.00073000      -1.45676000      -0.08718000
Al       5.66193171      -1.63209156       5.97678820      -0.12609000      -2.49432000       0.68934000
Ti       6.04915307       6.02545961      -0.12544634       0.17329000      -1.27474000       0.90556000
Al       3.32392410       8.99468378      -1.81647855      -0.41864000       2.77558000       1.27872000
Ti      -2.87579485       2.91541923      11.70434187      -0.05876000      -0.49351000      -0.46073000
Al       8.07749689       8.42489093       1.67769386      -9.96229000       0.71839000      -0.36870000
Ti       5.56142479       9.68376411       7.65966378       0.64653000      -1.47643000      -1.83115000
Al       1.99885808       7.88443162       7.66667434      -6.65061000      -0.26855000       3.71817000
Ti      14.26222352      -3.69158695       3.82079132      -0.50178000      -0.29354000       0.23816000
Al       6.98764884      -4.13091361      -2.16377555       1.89546000       0.95780000       2.23706000
Ti       6.84511607       4.83842782       6.35556566       1.34260000      -1.77012000      -2.49772000
Al       1.44732999      -4.36575952       6.40348131      -3.57468000      -2.68184000      -3.60158000
Ti       4.24683564       3.10123779       6.22619341      -0.04867000       0.17854000      -1.66600000
Al       1.97617934      -7.11847018       4.74371009      -1.71039000       0.95126000       1.66382000
Ti       5.82813256       7.55427072       3.40004804      -1.14807000      -0.58020000      -4.00762000
Al      10.02847762      -0.35359222       1.74471481       1.50517000      -3.22565000      -6.04801000
Ti       5.56254097       1.54874168       9.79299522       0.68949000       1.15285000      -0.37080000
Al       9.89050259       4.06554099       2.86357566      -4.29386000       4.23945000      -2.26162000
Ti       5.53470413       0.17393801      11.78490844       1.51049000      -0.29323000       0.35919000
Al       1.55644501      -3.10000322       9.64355448       0.15947000      -0.59712000       2.67715000
Ti      10.63645735       5.49248378       0.57087898       0.07142000       0.36809000      -0.41364000
Al       4.00575772       4.18997812      -2.28208941       8.75498000       3.81106000      -7.98663000
Ti       8.26534487       6.66563098       0.01700823       0.46737000       0.43532000      -1.70506000
Al       5.18547516      10.60427417       3.43516179       2.01962000       4.59459000      18.32105000
Ti       7.77795484       7.99200767       7.04464876      -0.54197000       0.49500000       0.67470000
Al       2.66595305       2.29088283      13.06580465      -0.75091000      -1.53365000       1.61055000
54
Lattice="8.124302990876025 0.0 0.0 0.0 8.124302990876025 0.0 0.0 0.0 11.714148287378352" Properties=species:S:1:pos:R:3:forces:R:3 virial="88.08372437792106 4.478153736226259 -19.02715140004067 4.478153736226259 36.26298629106146 0.5936791595103752 -19.02715140004067 0.5936791595103752 96.8373322646369" config_type=TiAl_T5000 energy=-45949.1628392 pbc="T T T"
Ti       2.73491661       1.93005816      -3.93717210       0.07096000       0.63844000       0.40572000
Al       2.82443018      -0.05594395       2.99909139       6.30199000       1.35847000       5.68415000
Ti       1.03522306       6.62904940       5.22584555       0.04230000      -0.78770000      -0.05546000
Al       3.02566104       3.00033759       3.44271790       3.14322000       0.04333000       1.28233000
Ti      -4.27073485      -1.89614732      10.35449881      -0.62398000       0.79438000       1.09038000
Al       0.41589932       1.80301844       2.48226316       5.89925000      -3.67357000      -7.01109000
Ti      -1.41256444       3.38041686       1.57154671       0.22637000       0.25322000       0.99221000
Al      -0.03456078       1.60309559      -0.15920699      -0.83070000      -0.47544000      -0.36330000
Ti      -2.27730712       5.99750671       8.20653401      -1.92000000       0.16089000       0.75663000
Al       3.16018325      -0.27258661       5.78321644      -7.09984000      -2.92508000       3.09588000
Ti       0.54599378       1.97412438       9.19585240       0.07540000       0.09105000      -0.83313000
Al       0.33923840       1.78847594       6.47240664       0.06205000       0.15253000       1.07715000
Ti      -0.97269030      15.93885881       9.33869473       0.46789000      -0.47916000       0.44518000
Al       4.68103652       8.29022563      -6.69811485       8.95528000       8.72215000      -5.47200000
Ti      -2.02843535       3.43222554       7.64491088      -0.63874000      -1.18609000      -1.19411000
Al       3.87858287       7.43662949      -3.47857490       2.54668000      -0.45392000      -0.59364000
Ti       1.32701553       7.48205247      10.40297196      -0.55661000      -0.04004000       0.50601000
Al      -5.49397053       3.21376303      10.55623987      -7.67210000      -4.50625000       4.95359000
Ti       7.32927495      -0.06562812       4.37967405       0.96866000       1.32097000       0.26128000
Al      -1.57003780       2.12245791       5.14087112      -9.15276000      -2.24425000      10.34109000
Ti       8.04085827       5.63331858       7.60011598       1.65413000      -0.73492000       0.94109000
Al       3.98058349      -1.10948731       1.28020412      -0.11709000      -1.22669000      -0.66696000
Ti       4.30071353       3.87822540      12.76127600      -1.13330000       2.22025000       1.09591000
Al       2.67862332      -3.10928449       7.17342813       4.75781000       3.43757000       2.24227000
Ti       2.94920323       5.74893553       3.94332202       1.17559000      -0.98519000      -0.15632000
Al       7.62947607       2.61895844       3.83035078       2.06996000       8.48599000      -0.82970000
Ti       7.75522403       6.15087730       2.95169594       1.14167000      -2.94599000      -0.76604000
Al       5.00502560       1.58366226       1.74640380      -0.26398000      -7.25324000     -18.29614000
Ti      -0.02798010       4.18538905      11.88613541       1.00073000      -1.45676000      -0.08718000
Al       5.43989517      -1.56808797       5.74240435      -0.12609000      -2.49432000       0.68934000
Ti       5.81193138       5.78916708      -0.12052687       0.17329000      -1.27474000       0.90556000
Al       3.19357414       8.64195108      -1.74524410      -0.41864000       2.77558000       1.27872000
Ti      -2.76301858       2.80108906      11.24534807      -0.05876000      -0.49351000      -0.46073000
Al       7.76073231       8.09450305       1.61190195      -9.96229000       0.71839000      -0.36870000
Ti       5.34332970       9.30400866       7.35928481       0.64653000      -1.47643000      -1.83115000
Al       1.92047149       7.57523822       7.36602044      -6.65061000      -0.26855000       3.71817000
Ti      13.70292063      -3.54681883       3.67095636      -0.50178000      -0.29354000       0.23816000
Al       6.71362339      -3.96891699      -2.07892161       1.89546000       0.95780000       2.23706000
Ti       6.57668014       4.64868555       6.10632779       1.34260000      -1.77012000      -2.49772000
Al       1.39057195      -4.19455326       6.15236439      -3.57468000      -2.68184000      -3.60158000
Ti       4.08029306       2.97962062       5.98202896      -0.04867000       0.17854000      -1.66600000
Al       1.89868211      -6.83931448       4.55768224      -1.71039000       0.95126000       1.66382000
Ti       5.59957834       7.25802481       3.26671282      -1.14807000      -0.58020000      -4.00762000
Al       9.63520399      -0.33972585       1.67629462       1.50517000      -3.22565000      -6.04801000
Ti       5.34440211       1.48800671       9.40895619       0.68949000       1.15285000      -0.37080000
Al       9.50263974       3.90610801       2.75127858      -4.29386000       4.23945000      -2.26162000
Ti       5.31765691       0.16711691      11.32275516       1.51049000      -0.29323000       0.35919000
Al       1.49540795      -2.97843447       9.26537587       0.15947000      -0.59712000       2.67715000
Ti      10.21934138       5.27709226       0.54849157       0.07142000       0.36809000      -0.41364000
Al       3.84866919       4.02566525      -2.19259571       8.75498000       3.81106000      -7.98663000
Ti       7.94121370       6.40423369       0.01634124       0.46737000       0.43532000      -1.70506000
Al       4.98212319      10.18842028       3.30044957       2.01962000       4.59459000      18.32105000
Ti       7.47293700       7.67859560       6.76838802      -0.54197000       0.49500000       0.67470000
Al       2.56140587       2.20104429      12.55342016      -0.75091000      -1.53365000       1.61055000
54
Lattice="8.124302990876025 0.0 0.0 0.0 8.124302990876025 0.0 0.0 0.0 11.714148287378352" Properties=species:S:1:pos:R:3:forces:R:3 virial="215.2242127978803 14.294338302832442 -19.388505167161544 14.294338302832442 95.52827118979647 11.397514477664942 -19.388505167161544 11.397514477664942 217.57894082358166" config_type=TiAl_T5000 energy=-45924.7141528 pbc="T T T"
Ti       0.88415977       2.40960327       1.23770519      -0.18448000      -0.08891000      -0.52380000
Al       3.27929366       0.97186975       1.29300769      -5.03831000      -0.55373000       2.00506000
Ti      -0.21981114       4.66290308       6.22291871       0.14543000      -0.20915000       0.29322000
Al      -0.95701852       3.81795932       8.85024989      -4.46162000      -0.71845000      -5.68602000
Ti       1.86513686       4.28725156      14.22986706       1.33092000       0.00867000       0.65154000
Al       1.23575523       1.67984588       5.39866438     -17.10689000       6.40537000      -5.52362000
Ti      -0.12476492       3.34030717       3.66669241      -0.45947000      -0.44522000      -0.89112000
Al      -2.85744735       2.73893814      -1.93065564      -2.16815000       0.73223000      -0.39101000
Ti      -2.07206286       3.80219005       5.31099569       0.77983000      -0.34444000      -2.09695000
Al      -1.50329665       0.63258260       0.26319348      14.20384000      -3.47473000       2.22385000
Ti       1.91426452       5.65177699       7.23756309       1.56306000       0.65260000      -0.82570000
Al       0.38464513       3.65467708      10.31740010       5.94517000      -0.29912000       4.75711000
Ti       2.97750018       6.67807957       2.16625059      -0.66795000      -0.58237000      -1.15919000
Al       1.64445642       4.98199320       0.15298678       0.68102000       0.91738000      -0.34442000
Ti      -0.40355850       6.01927171       8.29578410       2.18682000      -0.48497000       0.88769000
Al       2.28031311       6.64653290       4.72439800       5.64863000      -1.19913000      -1.65771000
Ti       0.79411000       8.27642244      12.36280753       2.71440000      -1.62805000      -1.58340000
Al      -0.44201083       6.11812823      10.74761391       0.92051000      -0.96280000       0.38879000
Ti       7.56539969       0.44243329       2.74846718      -0.78961000      -0.51907000       0.62320000
Al       5.12013885       0.25641925      -1.38000867      -4.92468000      -3.77229000      -1.46253000
Ti       3.71359452       3.77911703       5.25359637       0.98114000       0.21470000      -0.00872000
Al       0.36922520      -0.83460965       5.25294037       7.86818000      -0.67993000     -10.52849000
Ti       3.80281562       0.93873884       8.28090714       0.82244000      -0.81150000       1.64690000
Al       1.28717394       2.91376502       7.98792457      10.31986000       7.86113000       4.35246000
Ti       3.03053563       4.74577097      -2.32187305      -0.79048000      -1.20167000       0.24204000
Al       4.15349303       4.06023416       0.10231137      -2.61102000      -6.13849000     -30.17167000
Ti       0.22192346       6.22418288       2.04935510       0.58999000       0.08623000       0.72305000
Al       1.74362166       0.84620303       3.57805145       2.24397000      -2.14068000      -5.78727000
Ti       4.09100090       3.36603684       7.14253792      -0.80507000      -0.07887000       3.09154000
Al       2.78360556       1.36436295       6.08851057      21.24370000       5.72232000      -2.08483000
Ti       4.61028197       8.24065113       3.33971539       0.07254000      -1.23391000      -1.17056000
Al       4.26656708       4.34461726       1.60092579       0.46846000       3.97994000      28.90404000
Ti       5.51278642       5.58248481       6.70152367      -1.19221000       0.50305000      -0.28200000
Al       6.51959879       6.72736159       4.34067765       0.09503000      -0.82016000      -0.22084000
Ti       4.53755321       7.92576940       5.97408677       0.71807000      -1.85023000       1.20369000
Al       6.33684259       0.04716158       8.82536903       3.18128000      -3.83677000      -8.23363000
Ti       6.00811705       2.37701669       2.24184199      -0.21889000       0.43872000       1.41290000
Al       5.94462562       5.67980584       2.00676246       1.51178000      -4.46466000      13.93809000
Ti       6.12933165       1.18712315       4.89278888       1.23312000       1.36212000      -1.13361000
Al       7.35088559      -0.61364485       6.56160988     -10.97819000       3.40373000      10.61570000
Ti       9.26536135      -0.83830620       9.39560206       2.07783000       1.33919000       0.25141000
Al       6.21713099       1.95910255       7.21454479      -9.79180000       0.90949000       0.64303000
Ti       6.82708741       3.81960855       0.60949885       0.50668000       0.55154000      -1.54319000
Al       6.02320388      -1.64752740       0.43327120      -2.06458000       5.82878000     -11.52858000
Ti       3.83306240       2.39661251       3.34703673      -0.71755000       0.81037000       0.86247000
Al       5.00435941       1.35512561       0.23184642     -10.27998000      11.33104000       3.26529000
Ti      10.88072463       1.43597868      10.53210873      -1.08686000       0.93886000      -0.41610000
Al       8.12266188       1.77614324       7.31586046      -2.26059000      -6.75754000      -2.65418000
Ti       1.80894106       4.17315385       5.00317130      -2.39320000      -0.42416000       0.42921000
Al       9.89076207       0.29351482      -4.54965805      -5.51193000      -9.58777000       7.23948000
Ti       5.48738172       5.66562893       9.13008917      -2.04429000       0.93110000       2.56520000
Al       4.62026674       5.59499624       3.84713715      -3.31847000      -1.12041000       1.91496000