128
Lattice="10.8324039878347 0.0 0.0 0.0 10.8324039878347 0.0 0.0 0.0 15.618864383171134" Properties=species:S:1:pos:R:3:forces:R:3 virial="348.110013295698 -10.29965789878165 55.24137655139204 -10.29965789878165 432.00052595491536 -30.300530006913885 55.24137655139204 -30.300530006913885 372.7723311798436" config_type=TiAl_T5000 energy=-108888.148359 pbc="T T T"
Ti       0.19867712       3.57669731       0.94024002      -0.75527000       1.34695000       1.02382000
Al      -2.92334086       2.08646183      -1.67873116      14.36257000      -3.52772000       4.91422000
Ti       2.55464916       2.29890694       7.68351291      -0.47293000      -0.81873000       0.56618000
Al      -4.32660297      -1.50014713       4.75664705      -1.99779000      -0.28864000       2.12087000
Ti      -1.60738793       0.51030372       7.19248705      -2.82722000       0.98045000      -0.31780000
Al      -4.52451099      -1.91811544      10.87649297      -4.18740000       2.83245000       2.55600000
Ti      -2.84374436      -1.47286031      15.96018343       0.55223000       0.39632000       2.53030000
Al       6.32036109       2.20129614      13.36824850     -12.96553000      15.90900000      -8.79489000
Ti       0.55203014       1.45716415       1.01764711       1.49033000      -2.72948000      -1.29085000
Al       5.62419498       4.61206932       5.26071466     -15.61879000       3.34499000      13.96604000
Ti       3.26255760       2.42806169       5.23517782       1.67835000       0.65385000       0.31061000
Al       0.59461232       8.39557888       6.19297344      -5.61453000       3.15360000       2.65741000
Ti       1.48421266       3.11095810      14.32974579       0.22367000       0.43516000      -1.18972000
Al      -0.68362218       4.07069826       5.79238081      -1.44297000       1.20236000      -1.25113000
Ti       4.08878838       7.60900553      16.71602713      -2.99166000      -0.32571000      -1.56921000
Al      -0.87765220       2.04954500      14.53004211       2.40736000       3.68559000       6.33260000
Ti       5.39895681       7.97960374       2.52756959       2.35605000      -1.32158000       4.27144000
Al       4.99743209       4.27500823      -1.45875508      -3.04029000      -7.77091000      -1.65237000
Ti      -2.43959820       8.89100971       6.59039545       1.01462000       1.40621000      -0.89163000
Al       2.95001024       5.97096190      -0.68010783       2.30383000      -7.48984000       0.60890000
Ti       3.78658597       7.85600601      11.38727669       1.48885000      -2.40825000       0.14997000
Al      -0.65945509       5.12791923       7.80530881      -2.95393000      -1.91777000      -0.31874000
Ti       7.80498539       6.29676811      14.31706327       0.29269000       1.31914000      -0.49806000
Al       5.06870931       5.75644780      12.71102231      -4.29994000       3.82879000      -0.26193000
Ti      -1.42162303      10.37786548      -1.09845911       0.86087000      -0.11444000       0.60621000
Al       2.28767373       9.84182397       1.11895106      -0.22379000      -1.34573000       0.64238000
Ti      -2.87004544       6.97539656       7.48401315       0.63730000      -1.29640000       2.24636000
Al      -4.19909475       5.46413538       4.16175575      11.59125000       9.57523000     -11.76533000
Ti       3.49433854      12.49842772      12.65759017       0.42216000       0.95184000       0.26560000
Al       2.48591756       7.83208806      14.36009325      -1.38466000       5.98477000      -2.60331000
Ti      -3.09372375      10.60157629      12.32117545       1.43274000       2.37081000       0.12500000
Al      -1.43189215       9.29205781      11.08269322       2.67606000       2.95138000       1.81336000
Ti       2.21052535       0.28338652       5.98210315      -1.30327000      -0.03195000      -3.09978000
Al      -2.75807088      -3.45250380       2.86359383       1.85400000       2.18049000       1.50958000
Ti      -0.58002107       0.22425243       4.69712356      -1.43942000      -1.01905000       1.65815000
Al      -3.27980278      -0.80471763       3.05962620       5.35484000      -1.95346000      -4.23853000
Ti       2.46052640       4.81504690      12.68278340       0.91677000       0.62157000      -0.97517000
Al       3.54273772      -1.29168835       9.45853437       6.90015000     -19.26088000      13.92194000
Ti       5.44163648       2.99722869      16.27154549       3.47737000      -3.39818000       0.47030000
Al       5.81042567       0.58242587      13.71270694      -4.99356000     -16.30267000       4.40137000
Ti       9.47202737       6.60646654       5.27638038      -0.20261000       0.48134000      -0.19714000
Al       4.44055986       1.92768045       2.96867755       1.06681000       1.04842000       5.07661000
Ti       0.49321019       0.42143468       7.84716737       1.66968000      -1.53683000       0.35886000
Al       5.89463678       3.59918538       3.23093391       2.62322000      -0.01096000      -6.76025000
Ti       2.45941067       7.50295630       8.39873194      -0.94878000      -0.12503000       0.73156000
Al       3.16509846       0.25091097       8.96082364     -10.50228000      19.05928000      -2.15300000
Ti       5.29231179       7.98418585      13.70763081      -1.11538000       0.20974000       0.00918000
Al       5.25543829       3.63527895      11.79953662      -2.12309000      -0.96808000      -0.40777000
Ti       2.96583639       9.91691420      -3.18913782       1.06495000      -0.23581000       0.33682000
Al       1.36721187       3.98851281       4.87570966       3.93677000      -3.65082000       7.56149000
Ti       1.61918442      11.41115767       3.30023481       1.16626000      -0.07703000       1.31712000
Al       6.16012817       2.86319936       5.11091414       3.20923000     -12.54431000       2.72095000
Ti       1.62625798       7.59569251      11.85553025      -2.17224000      -0.11462000      -0.89842000
Al      -2.74289468       8.19384702       9.91751032      -1.00158000      -3.19491000      -6.18383000
Ti       7.44807934       8.91684500      13.55370690      -0.66931000      -0.63562000      -0.04639000
Al       8.84761510       7.23054300      11.84114527      -0.37035000      -2.96327000       1.07605000
Ti       4.03200492       9.88710342      -0.94672185      -0.53943000      -0.53075000       0.72149000
Al       3.05857260       3.32865692       0.81546091      -2.99987000      -2.49676000      -6.01639000
Ti       5.48588685       9.96504257       1.14297288      -0.32454000       1.80928000      -0.91686000
Al       3.57858215      11.50181406       1.75118707      -1.92072000      -2.35608000      -4.48985000
Ti       5.89477760       8.68337419       8.00126308      -0.53525000      -1.71026000      -0.18296000
Al      -0.46317193       7.17989068       7.99496868      -7.45854000       4.09438000     -19.07711000
Ti       3.64953440      12.23729096      15.07737397       0.86800000      -0.05173000      -1.45098000
Al       1.34456131      11.27900234      14.24879322       1.50020000      -0.38912000       0.52061000
Ti       7.96742812       4.04236069      -0.15058147       0.71139000      -0.98017000       1.93998000
Al       0.57149597      -1.83724071      -0.12087439      -0.92861000       0.46254000      -0.50187000
Ti       8.67252012       3.06536451       8.05258667       0.55164000      -1.47490000       1.38002000
Al       6.40312066       1.00454298       2.91179365      -1.17286000       1.39420000      -0.99399000
Ti      10.81343645      -1.88435084       3.90538771      -0.41632000      -1.22918000       0.11651000
Al      -1.19886548      -1.37535784       8.80441633       0.02065000       1.16744000      -2.67660000
Ti       7.73777032       0.73840165      16.29392732       0.65584000       1.52608000      -0.51896000
Al       2.50592501      -2.39223893       5.41424810      -3.41150000      -0.75364000      -2.24716000
Ti       8.65809136       1.74559857       2.83704176      -0.04689000       0.23516000      -3.11635000
Al       1.39201807      -4.41017497       1.01955261      -4.95937000       4.48901000      -6.26862000
Ti       1.71423876       4.68954267       7.52569990       2.27795000      -1.17431000       0.55594000
Al       6.38976430      -3.69352479       5.68318933      -0.04541000      -0.18890000       0.79242000
Ti       8.18630767       0.80758821       9.78206353       0.84574000      -0.41695000      -0.34467000
Al       4.45767506      -2.31234995       5.52298663       6.25258000       0.25076000       1.29734000
Ti       7.64664814       4.38670115      13.15027163      -0.33402000       0.40449000      -1.59784000
Al       4.22064040       5.43832176       9.85787749      -1.77149000       1.27304000       0.66803000
Ti       6.63963537       7.83984406       0.33896059      -0.46227000      -1.70568000      -0.24815000
Al       5.45746262       5.42001500       0.12338903       1.58090000       5.37626000       1.78083000
Ti       4.04192740       6.50108892       7.09338535      -0.44656000       0.58432000      -0.51801000
Al       1.89730639       7.54010061       3.00594416       3.41701000       2.21883000       1.35989000
Ti       4.33637380       3.99398318       7.64766761      -0.82322000      -0.98814000      -1.01526000
Al       2.72547617       3.40657441      10.06916949       1.04807000      -0.90236000       0.05574000
Ti      10.17807262       8.06214666      13.52070424       0.75463000      -1.68805000       1.94239000
Al       6.75191323       6.07122663      11.53701475       7.86750000      -6.83695000      14.15037000
Ti       9.57287705       7.44731024       0.49143195      -0.70184000      -1.35407000      -0.10190000
Al       2.98798865      14.32450022       2.91727587      -6.10491000      -3.03801000       8.17718000
Ti      12.30577342       6.24398181       6.26299281      -0.71744000      -0.49867000      -1.37420000
Al       0.91662719       4.74601199       3.17676768      -0.81052000      -0.57968000      -5.09317000
Ti       3.70050086       5.99694884       4.34290334       0.16750000      -0.17736000      -0.45440000
Al       3.33284906       9.85872252       7.49750785       1.86526000      -6.05385000     -11.01505000
Ti       7.54578762      13.98209877      10.78560680       1.66966000      -1.04636000       1.62407000
Al      11.06584229       7.22732578       9.50086149       6.15804000       0.82151000      19.66190000
Ti       7.77307312       4.66323076       6.40801397       0.51622000      -0.00420000      -0.07495000
Al      11.02183024      -0.85952959      -3.19223036       5.54016000      -5.23454000      -0.63124000
Ti      11.20455123       2.01186990       6.35505040       0.24026000       0.59231000      -0.35574000
Al       7.47104404       0.73829333       5.15441267      -3.30555000      -7.55530000       1.02937000
Ti       6.06236572      -0.06440947       8.62950067      -0.18898000      -0.98246000      -1.13600000
Al       8.58368358       2.33485969       5.14429165       5.47440000       6.75490000       1.72365000
Ti       8.95429262       5.07732107      10.37775139      -0.69515000       1.32570000      -1.53403000
Al      11.82710032      -1.34072664       9.60110336       1.89045000       0.55406000       1.58747000
Ti       9.10361731       4.61021698       3.32263226      -0.53113000      -0.41266000      -0.28581000
Al      10.28413269       0.93780454      -2.82057948      -1.63641000       3.63909000      -4.70143000
Ti      10.70881709       2.10253712       3.23121504       1.07392000       3.01697000       2.39411000
Al       5.02107923       0.56445491       5.92621886      -1.21019000      -1.46871000      -0.14417000
Ti      10.63451763       1.47307695      10.02290641      -1.37376000      -2.35240000       0.51788000
Al       6.14382540       2.19643239       7.34249062       1.36728000      -0.19497000       1.73413000
Ti       5.95489744       3.62181427       9.54593753       2.06187000       0.12050000      -2.60637000
Al       4.42742016       1.64458641       9.54184539       3.09760000       5.62642000       1.84944000
Ti       9.76646294       3.11768502      -3.41422128      -4.58072000       2.33434000      -0.68196000
Al       7.20611593       5.70735535       1.60199568       0.82611000      -1.70703000       0.41761000
Ti      14.53957760       9.73142011       3.56981641      -0.14190000       1.11524000      -1.09914000
Al      10.80527965       6.45774847       2.65934594      -8.16895000       4.83216000       0.54009000
Ti      10.30370685       5.30964364      12.73548145       1.63067000       0.79215000      -0.96994000
Al      11.81984261       2.82718161      11.68189533       4.37923000       0.59490000       0.90758000
Ti      10.61031804       5.05696698      15.14298882      -0.64672000       0.69398000      -0.69956000
Al       6.30387417       6.72553633      10.04631909      -5.50055000       6.42741000     -16.96897000
Ti      10.37965283      10.06338996       2.17367736      -0.97767000       0.76972000      -1.85744000
Al      13.66933477       5.37016428       1.85200684     -11.36949000       7.89779000       0.66969000
Ti       5.93058953       5.73670033       7.91674941       0.85115000      -0.45578000      -1.17759000
Al       4.37505632       4.68593548       2.00375973      19.13951000      -0.62042000       1.48837000
Ti      12.75315170      11.38821464      11.20687881      -0.15508000       0.93899000      -1.56140000
Al      11.04240097       3.80080892       9.43565273      -0.63117000      -2.50595000       0.13052000
Ti       6.07875515      11.59393282      11.02407562      -1.78283000       0.77863000       1.48620000
Al      12.34271191       5.51486353      10.22299969       2.11403000       0.65275000       1.99329000