2
Lattice="2.614036117884091 0.0 0.0 0.0 2.6528336296738044 0.0 0.0 0.0 3.8250280122051756" Properties=species:S:1:pos:R:3:forces:R:3:tags:I:1 config_type=FLD_TiAl spacegroup="P 1" virial="5.072173561696366 0.1220123768779895 0.6518229755809941 0.1220123768779895 4.667636799854875 0.5969893898844183 0.6518229755809941 0.5969893898844183 4.700422750506493" energy=-1703.64063822 unit_cell=conventional n_minim_iter=2 pbc="T T T"
Ti       1.30924260       1.32316179       1.62637131       0.86219000       0.78737000       2.65969000        0
Al       0.11095015       0.09471147      -0.05013464      -0.86219000      -0.78737000      -2.65969000        1
2
Lattice="2.6528336296738044 0.02630779655214213 0.0 0.0 2.6528336296738044 0.0 0.0 0.0 3.8250280122051756" Properties=species:S:1:pos:R:3:forces:R:3:tags:I:1 config_type=FLD_TiAl spacegroup="P 1" virial="4.15023781187055 -0.06577612122395084 -0.171170505070969 -0.06577612122395084 4.04967986552191 -0.5378649084927113 -0.171170505070969 -0.5378649084927113 4.042613216415338" energy=-1703.82673644 unit_cell=conventional n_minim_iter=2 pbc="T T T"
Ti       1.33489792       1.43578555       1.86138486      -0.26082000      -0.81162000       2.10994000        0
Al      -0.02858694      -0.01403313       0.14867884       0.26082000       0.81162000      -2.10994000        1
2
Lattice="2.6528336296738044 0.0 0.06755175285654859 0.0 2.6528336296738044 0.0 0.0 0.0 3.8250280122051756" Properties=species:S:1:pos:R:3:forces:R:3:tags:I:1 config_type=FLD_TiAl spacegroup="P 1" virial="4.072891774873278 -0.13349515091838202 -0.939913055098077 -0.13349515091838202 3.4624871924596543 0.6797839218196843 -0.939913055098077 0.6797839218196843 4.678858951924236" energy=-1703.76378253 unit_cell=conventional n_minim_iter=2 pbc="T T T"
Ti       1.23028343       1.55107468       1.99220177       0.37348000      -1.76228000      -1.23099000        0
Al      -0.06003893      -0.04203415      -0.05924850      -0.37348000       1.76228000       1.23099000        1
2
Lattice="2.6528336296738044 0.0 0.0 -0.1057971256485768 2.6528336296738044 0.0 0.0 0.0 3.8250280122051756" Properties=species:S:1:pos:R:3:forces:R:3:tags:I:1 config_type=FLD_TiAl spacegroup="P 1" virial="3.4352149001087975 0.23586814744054302 0.0334390609863217 0.23586814744054302 3.5011123271020055 -0.008344560022040605 0.0334390609863217 -0.008344560022040605 3.7232905640372547" energy=-1704.03703072 unit_cell=conventional n_minim_iter=2 pbc="T T T"
Ti       1.35588383       1.27811402       1.95469642      -0.64417000       0.17368000      -0.14898000        0
Al      -0.01751269      -0.01386901       0.02786533       0.64417000      -0.17368000       0.14898000        1
2
Lattice="2.6528336296738044 0.0 0.0 0.0 2.690273413809704 0.0 0.0 0.0 3.8250280122051756" Properties=species:S:1:pos:R:3:forces:R:3:tags:I:1 config_type=FLD_TiAl spacegroup="P 1" virial="3.4142480581413466 -0.22388450965073425 -0.311507581932681 -0.22388450965073425 2.9948857509964637 0.3238662677584964 -0.311507581932681 0.3238662677584964 3.934813100351388" energy=-1703.9227341 unit_cell=conventional n_minim_iter=2 pbc="T T T"
Ti       1.31091100       1.41682711       1.92399674       1.05011000      -1.08841000      -0.85391000        0
Al       0.13973801      -0.08847502      -0.07022369      -1.05011000       1.08841000       0.85391000        1
2
Lattice="2.6528336296738044 0.0 0.0 0.0 2.6528336296738044 0.027359381427691495 0.0 0.0 3.8250280122051756" Properties=species:S:1:pos:R:3:forces:R:3:tags:I:1 config_type=FLD_TiAl spacegroup="P 1" virial="3.6599546713350315 0.23602977645719833 0.38012372494072333 0.23602977645719833 3.6872541818778823 0.05734873053121265 0.38012372494072333 0.05734873053121265 4.4127381201095" energy=-1703.85008627 unit_cell=conventional n_minim_iter=2 pbc="T T T"
Ti       1.41754165       1.30767189       2.00274191      -1.17489000      -1.08793000      -0.96413000        0
Al      -0.07841511      -0.17961010      -0.01642955       1.17489000       1.08793000       0.96413000        1
2
Lattice="2.6528336296738044 0.0 0.0 0.0 2.6528336296738044 0.0 0.08145018223474548 0.0 3.8250280122051756" Properties=species:S:1:pos:R:3:forces:R:3:tags:I:1 config_type=FLD_TiAl spacegroup="P 1" virial="3.5284123416854487 0.00678573048303016 -0.6451544849674551 0.00678573048303016 3.465170200533426 0.007481978554776148 -0.6451544849674551 0.007481978554776148 3.6916294222341413" energy=-1704.03741053 unit_cell=conventional n_minim_iter=2 pbc="T T T"
Ti       1.47043632       1.32307159       1.83482386       0.05707000       0.66717000       0.02825000        0
Al       0.11206216       0.09638806      -0.07432029      -0.05707000      -0.66717000      -0.02825000        1
2
Lattice="2.6528336296738044 0.0 0.0 0.0 2.6528336296738044 0.0 0.0 0.037466402954420865 3.8250280122051756" Properties=species:S:1:pos:R:3:forces:R:3:tags:I:1 config_type=FLD_TiAl spacegroup="P 1" virial="3.5598812760092957 0.32477233926397886 0.554297639888751 0.32477233926397886 3.871346607604736 0.08485960209584384 0.554297639888751 0.08485960209584384 4.843917628784321" energy=-1703.74949839 unit_cell=conventional n_minim_iter=2 pbc="T T T"
Ti       1.51857217       1.45087905       1.97429968      -1.64432000      -1.08953000      -1.05252000        0
Al      -0.05092379      -0.04939135      -0.03340397       1.64432000       1.08953000       1.05252000        1
2
Lattice="2.6528336296738044 0.0 0.0 0.0 2.6528336296738044 0.0 0.0 0.0 3.754430931929335" Properties=species:S:1:pos:R:3:forces:R:3:tags:I:1 config_type=FLD_TiAl spacegroup="P 1" virial="4.688183004217 0.23186047592616474 -0.03697455242395062 0.23186047592616474 3.5825674167824944 -0.1412091909726232 -0.03697455242395062 -0.1412091909726232 6.083134561140975" energy=-1703.56352614 unit_cell=conventional n_minim_iter=2 pbc="T T T"
Ti       1.29745052       1.10841225       1.86835876       0.61187000       2.30765000      -0.21654000        0
Al       0.04528918       0.12858285      -0.02549634      -0.61187000      -2.30765000       0.21654000        1
2
Lattice="2.66882989171746 0.0 0.0 0.0 2.6528336296738044 0.0 0.0 0.0 3.8250280122051756" Properties=species:S:1:pos:R:3:forces:R:3:tags:I:1 config_type=FLD_TiAl spacegroup="P 1" virial="3.1983662128518677 -0.005601711606155952 -0.011641033162172736 -0.005601711606155952 3.3908163863175282 0.0060908746787311716 -0.011641033162172736 0.0060908746787311716 3.374606563296437" energy=-1704.0917082 unit_cell=conventional n_minim_iter=2 pbc="T T T"
Ti       1.32544501       1.47884864       1.95492974       0.24006000      -0.12519000      -0.12876000        0
Al       0.02699255       0.13366833       0.02920026      -0.24006000       0.12519000       0.12876000        1
2
Lattice="2.6908842560297805 0.0 0.0 0.0 2.6528336296738044 0.0 0.0 0.0 3.8250280122051756" Properties=species:S:1:pos:R:3:forces:R:3:tags:I:1 config_type=FLD_TiAl spacegroup="P 1" virial="3.0897142978251115 -0.013739024395569297 0.16683140005686004 -0.013739024395569297 3.5412173903394755 -0.09520840382028548 0.16683140005686004 -0.09520840382028548 3.3447940094597395" energy=-1704.01640266 unit_cell=conventional n_minim_iter=2 pbc="T T T"
Ti       1.21270081       1.40712397       1.79628288       0.33705000      -0.19337000       1.37981000        0
Al      -0.08428119       0.05283914       0.02532551      -0.33705000       0.19337000      -1.37981000        1
2
Lattice="2.6528336296738044 -0.052899690382803094 0.0 0.0 2.6528336296738044 0.0 0.0 0.0 3.8250280122051756" Properties=species:S:1:pos:R:3:forces:R:3:tags:I:1 config_type=FLD_TiAl spacegroup="P 1" virial="3.6252497964074615 0.1768634755495021 0.17413157553825936 0.1768634755495021 3.6596020109338263 0.05650631068764741 0.17413157553825936 0.05650631068764741 3.6849935598206094" energy=-1704.00595397 unit_cell=conventional n_minim_iter=2 pbc="T T T"
Ti       1.27893375       1.36322888       1.96152026       0.46737000       0.14720000       1.05658000        0
Al       0.01930467       0.08129580       0.15293227      -0.46737000      -0.14720000      -1.05658000        1
2
Lattice="2.6528336296738044 0.12581766485803414 0.0 0.0 2.6528336296738044 0.0 0.0 0.0 3.8250280122051756" Properties=species:S:1:pos:R:3:forces:R:3:tags:I:1 config_type=FLD_TiAl spacegroup="P 1" virial="3.9431233320821635 -0.5137673998203561 0.2946747313787393 -0.5137673998203561 3.4425589395547647 -0.6311777753650407 0.2946747313787393 -0.6311777753650407 4.705990280922729" energy=-1703.77778558 unit_cell=conventional n_minim_iter=2 pbc="T T T"
Ti       1.32133929       1.22975034       2.01643619      -0.75203000       1.66507000      -1.23222000        0
Al      -0.08215560       0.08377970      -0.00170979       0.75203000      -1.66507000       1.23222000        1
2
Lattice="2.6528336296738044 0.0 0.07441934661181543 0.0 2.6528336296738044 0.0 0.0 0.0 3.8250280122051756" Properties=species:S:1:pos:R:3:forces:R:3:tags:I:1 config_type=FLD_TiAl spacegroup="P 1" virial="4.312356587968228 0.12678116221301486 -1.2099899335096589 0.12678116221301486 4.234508022500254 -0.6215443835480283 -1.2099899335096589 -0.6215443835480283 4.173097900888367" energy=-1703.74827723 unit_cell=conventional n_minim_iter=2 pbc="T T T"
Ti       1.18282424       1.27596788       2.04630905       0.69702000       0.86427000      -2.39637000        0
Al      -0.08194338       0.06236281      -0.12168169      -0.69702000      -0.86427000       2.39637000        1
2
Lattice="2.6528336296738044 0.0 0.15153300633673417 0.0 2.6528336296738044 0.0 0.0 0.0 3.8250280122051756" Properties=species:S:1:pos:R:3:forces:R:3:tags:I:1 config_type=FLD_TiAl spacegroup="P 1" virial="4.263463474402933 -0.24767630640057675 -2.0372744461639107 -0.24767630640057675 3.777176703711659 0.8627321754016073 -2.0372744461639107 0.8627321754016073 4.572766807883695" energy=-1703.70030206 unit_cell=conventional n_minim_iter=2 pbc="T T T"
Ti       1.33468039       1.33885065       2.16483770       0.69936000      -1.65542000      -1.74441000        0
Al       0.05857987      -0.22344552       0.03130711      -0.69936000       1.65542000       1.74441000        1
2
Lattice="2.6528336296738044 0.0 0.0 0.014073127010518285 2.6528336296738044 0.0 0.0 0.0 3.8250280122051756" Properties=species:S:1:pos:R:3:forces:R:3:tags:I:1 config_type=FLD_TiAl spacegroup="P 1" virial="3.4690627380156207 -0.09918510778825454 -0.315097616118383 -0.09918510778825454 3.7326815123292847 0.07958028093020618 -0.315097616118383 0.07958028093020618 4.072023984986558" energy=-1703.936701 unit_cell=conventional n_minim_iter=2 pbc="T T T"
Ti       1.46283678       1.34580638       1.91157687      -1.20516000       0.30130000       0.75713000        0
Al      -0.05086840       0.05994873       0.07062532       1.20516000      -0.30130000      -0.75713000        1
2
Lattice="2.6528336296738044 0.0 0.0 -0.1213861733235097 2.6528336296738044 0.0 0.0 0.0 3.8250280122051756" Properties=species:S:1:pos:R:3:forces:R:3:tags:I:1 config_type=FLD_TiAl spacegroup="P 1" virial="3.483125302532287 0.3371124290626101 -0.00554108624666571 0.3371124290626101 3.472334801528471 0.03782471818149195 -0.00554108624666571 0.03782471818149195 3.613665935511081" energy=-1704.05583988 unit_cell=conventional n_minim_iter=2 pbc="T T T"
Ti       1.28896649       1.30105307       1.90337219       0.03768000      -0.21782000      -0.49763000        0
Al       0.03235137      -0.05838356      -0.05735630      -0.03768000       0.21782000       0.49763000        1
2
Lattice="2.6528336296738044 0.0 0.0 0.0 2.361788362615536 0.0 0.0 0.0 3.8250280122051756" Properties=species:S:1:pos:R:3:forces:R:3:tags:I:1 config_type=FLD_TiAl spacegroup="P 1" virial="6.40345352924199 0.20444120684708122 1.5740695359462824 0.20444120684708122 11.493714735581442 0.6591744071762557 1.5740695359462824 0.6591744071762557 8.565492776850961" energy=-1702.61106234 unit_cell=conventional n_minim_iter=2 pbc="T T T"
Ti       1.41997960       1.30239402       1.97854164      -1.89556000      -0.81828000      -3.98421000        0
Al      -0.11261279       0.02722433      -0.18792745       1.89556000       0.81828000       3.98421000        1
2
Lattice="2.6528336296738044 0.0 0.0 0.0 2.7711283584762283 0.0 0.0 0.0 3.8250280122051756" Properties=species:S:1:pos:R:3:forces:R:3:tags:I:1 config_type=FLD_TiAl spacegroup="P 1" virial="3.0600976224718277 -0.22898877733640766 0.35884674748936307 -0.22898877733640766 1.7693861863454012 -0.4862790552552595 0.35884674748936307 -0.4862790552552595 3.203280325983461" energy=-1703.96419683 unit_cell=conventional n_minim_iter=2 pbc="T T T"
Ti       1.46401399       1.19179026       1.98460048      -0.88246000       1.17963000      -1.11471000        0
Al       0.00397925      -0.01368383      -0.04282884       0.88246000      -1.17963000       1.11471000        1
2
Lattice="2.6528336296738044 0.0 0.0 0.0 2.6528336296738044 -0.1828889909224308 0.0 0.0 3.8250280122051756" Properties=species:S:1:pos:R:3:forces:R:3:tags:I:1 config_type=FLD_TiAl spacegroup="P 1" virial="3.831228504727459 0.042545226343599876 0.49656348631782177 0.042545226343599876 4.04054698601323 1.9981657685798413 0.49656348631782177 1.9981657685798413 4.035068736827094" energy=-1703.83374176 unit_cell=conventional n_minim_iter=2 pbc="T T T"
Ti       1.29086619       1.20801820       1.91474053       1.10155000       0.05866000       1.36201000        0
Al       0.11924487      -0.15678247       0.23104620      -1.10155000      -0.05866000      -1.36201000        1
2
Lattice="2.6528336296738044 0.0 0.0 0.0 2.6528336296738044 0.20022357247519112 0.0 0.0 3.8250280122051756" Properties=species:S:1:pos:R:3:forces:R:3:tags:I:1 config_type=FLD_TiAl spacegroup="P 1" virial="3.787630505599698 0.07294441851667346 0.01430820029873555 0.07294441851667346 3.600445118783856 -2.0985604057765173 0.01430820029873555 -2.0985604057765173 3.9556299232898438" energy=-1703.90288087 unit_cell=conventional n_minim_iter=2 pbc="T T T"
Ti       1.30886832       1.25027253       2.02149038       0.44918000       0.96806000      -0.03179000        0
Al       0.04567914       0.08050819       0.04525615      -0.44918000      -0.96806000       0.03179000        1
2
Lattice="2.6528336296738044 0.0 0.0 0.0 2.6528336296738044 0.0 -0.23205129179298856 0.0 3.8250280122051756" Properties=species:S:1:pos:R:3:forces:R:3:tags:I:1 config_type=FLD_TiAl spacegroup="P 1" virial="3.4602094330222366 0.1420732497482718 2.1302642230164603 0.1420732497482718 3.9329606976430465 0.22531420948813086 2.1302642230164603 0.22531420948813086 4.457008173360568" energy=-1703.82197114 unit_cell=conventional n_minim_iter=2 pbc="T T T"
Ti       1.29691638       1.30687074       2.01832958      -1.33085000      -0.56453000      -1.36475000        0
Al      -0.08990919      -0.09699025       0.01170841       1.33085000       0.56453000       1.36475000        1
2
Lattice="2.6528336296738044 0.0 0.0 0.0 2.6528336296738044 0.0 0.13211620903749471 0.0 3.8250280122051756" Properties=species:S:1:pos:R:3:forces:R:3:tags:I:1 config_type=FLD_TiAl spacegroup="P 1" virial="3.511980618370594 -0.13453414659301455 -1.0048768309004805 -0.13453414659301455 3.538745341844823 0.0017890080762430706 -1.0048768309004805 0.0017890080762430706 4.093721756398114" energy=-1703.94811734 unit_cell=conventional n_minim_iter=2 pbc="T T T"
Ti       1.36916768       1.30204258       1.88718467       0.82339000      -0.91336000      -0.06545000        0
Al       0.10027835      -0.15909043      -0.01870439      -0.82339000       0.91336000       0.06545000        1
2
Lattice="2.6528336296738044 0.0 0.0 0.0 2.6528336296738044 0.0 0.0 0.006847265457109092 3.8250280122051756" Properties=species:S:1:pos:R:3:forces:R:3:tags:I:1 config_type=FLD_TiAl spacegroup="P 1" virial="3.646466881107323 0.04388983863080625 -0.08527157127343099 0.04388983863080625 3.5496833587287058 -0.2781793309357013 -0.08527157127343099 -0.2781793309357013 3.7882385465677606" energy=-1703.99547627 unit_cell=conventional n_minim_iter=2 pbc="T T T"
Ti       1.30580960       1.33192732       1.99499309      -0.29172000      -0.77739000       0.82531000        0
Al      -0.06266258      -0.11171414       0.16264402       0.29172000       0.77739000      -0.82531000        1
2
Lattice="2.6528336296738044 0.0 0.0 0.0 2.6528336296738044 0.0 0.0 0.08117774731251874 3.8250280122051756" Properties=species:S:1:pos:R:3:forces:R:3:tags:I:1 config_type=FLD_TiAl spacegroup="P 1" virial="3.5882335593363077 0.04294274635753594 0.0955674404424933 0.04294274635753594 3.5405474549764713 -0.48634607946765557 0.0955674404424933 -0.48634607946765557 3.737566337724541" energy=-1704.01328077 unit_cell=conventional n_minim_iter=2 pbc="T T T"
Ti       1.42283405       1.24337252       1.88623989       0.41064000       0.56487000       0.62142000        0
Al       0.15632883      -0.03364825       0.04076332      -0.41064000      -0.56487000      -0.62142000        1
2
Lattice="2.6528336296738044 0.0 0.0 0.0 2.6528336296738044 0.0 0.0 0.0 3.608899446862489" Properties=species:S:1:pos:R:3:forces:R:3:tags:I:1 config_type=FLD_TiAl spacegroup="P 1" virial="4.9545409622890375 -0.13613217368108294 -0.03916873896805635 -0.13613217368108294 5.389249922701867 0.013008795963715958 -0.03916873896805635 0.013008795963715958 6.397801754393843" energy=-1703.6372819 unit_cell=conventional n_minim_iter=2 pbc="T T T"
Ti       1.25368673       1.37056527       1.81213307       1.62265000      -0.53980000      -0.09336000        0
Al       0.12042273      -0.01599128       0.00058825      -1.62265000       0.53980000       0.09336000        1
2
Lattice="2.6528336296738044 0.0 0.0 0.0 2.6528336296738044 0.0 0.0 0.0 4.022689570712009" Properties=species:S:1:pos:R:3:forces:R:3:tags:I:1 config_type=FLD_TiAl spacegroup="P 1" virial="2.2233689088935105 -0.0282826320769006 -0.036363989912948216 -0.0282826320769006 2.383179809772309 0.00583290413516197 -0.036363989912948216 0.00583290413516197 1.898345517380622" energy=-1704.12461618 unit_cell=conventional n_minim_iter=2 pbc="T T T"
Ti       1.51027145       1.25127000       1.90062428      -0.90156000       0.14429000       0.08806000        0
Al       0.01013117      -0.04877235      -0.10047069       0.90156000      -0.14429000      -0.08806000        1
2
Lattice="2.659995073160324 0.0 0.0 0.0 2.6528336296738044 0.0 0.0 0.0 3.8250280122051756" Properties=species:S:1:pos:R:3:forces:R:3:tags:I:1 config_type=FLD_TiAl spacegroup="P 1" virial="4.161786922711607 0.24119264936552132 -0.3506908675012974 0.24119264936552132 3.534352637988367 -1.016364317917483 -0.3506908675012974 -1.016364317917483 4.987437059577232" energy=-1703.65608093 unit_cell=conventional n_minim_iter=2 pbc="T T T"
Ti       1.40227758       1.52225165       1.75051642      -0.67645000      -1.96281000       1.73935000        0
Al      -0.01484011      -0.09639602      -0.01452363       0.67645000       1.96281000      -1.73935000        1
2
Lattice="3.0376746213585677 0.0 0.0 0.0 2.6528336296738044 0.0 0.0 0.0 3.8250280122051756" Properties=species:S:1:pos:R:3:forces:R:3:tags:I:1 config_type=FLD_TiAl spacegroup="P 1" virial="-1.2079023069382646 0.4758310973115787 0.38498100099945776 0.4758310973115787 1.9904993186047935 0.17744824974393833 0.38498100099945776 0.17744824974393833 2.157770493717486" energy=-1703.76238359 unit_cell=conventional n_minim_iter=2 pbc="T T T"
Ti       1.17784315       1.21656563       1.88067830       1.83418000       0.91501000       0.48560000        0
Al       0.02096603       0.04288836       0.02226166      -1.83418000      -0.91501000      -0.48560000        1
2
Lattice="2.6528336296738044 -0.09972466938970789 0.0 0.0 2.6528336296738044 0.0 0.0 0.0 3.8250280122051756" Properties=species:S:1:pos:R:3:forces:R:3:tags:I:1 config_type=FLD_TiAl spacegroup="P 1" virial="4.063552910775804 0.05647321202207454 0.6252847007712931 0.05647321202207454 3.9949531541527796 -0.7639104808805309 0.6252847007712931 -0.7639104808805309 4.648081393279741" energy=-1703.71094932 unit_cell=conventional n_minim_iter=2 pbc="T T T"
Ti       1.20351899       1.42778062       1.92673164       1.06195000      -1.29303000       1.99265000        0
Al       0.03544186      -0.03963924       0.18934271      -1.06195000       1.29303000      -1.99265000        1
2
Lattice="2.6528336296738044 0.09738032697840568 0.0 0.0 2.6528336296738044 0.0 0.0 0.0 3.8250280122051756" Properties=species:S:1:pos:R:3:forces:R:3:tags:I:1 config_type=FLD_TiAl spacegroup="P 1" virial="3.538575480165158 -0.2949081021730576 0.09849759642011155 -0.2949081021730576 3.5379161950701934 -0.09512371670757988 0.09849759642011155 -0.09512371670757988 3.6788607299183713" energy=-1704.02962943 unit_cell=conventional n_minim_iter=2 pbc="T T T"
Ti       1.24781866       1.41041729       2.00575671       0.37289000      -0.35992000       0.74196000        0
Al      -0.02828451      -0.01332885       0.16512263      -0.37289000       0.35992000      -0.74196000        1
2
Lattice="2.6528336296738044 0.0 -0.06503867362230244 0.0 2.6528336296738044 0.0 0.0 0.0 3.8250280122051756" Properties=species:S:1:pos:R:3:forces:R:3:tags:I:1 config_type=FLD_TiAl spacegroup="P 1" virial="4.388892799746916 0.5084665729227726 2.18003403118561 0.5084665729227726 4.741677362951513 1.0952807115000756 2.18003403118561 1.0952807115000756 5.381390897736675" energy=-1703.39751867 unit_cell=conventional n_minim_iter=2 pbc="T T T"
Ti       1.50296555       1.45236805       2.07606332      -2.08740000      -1.39272000      -3.06742000        0
Al      -0.06606882      -0.04121442      -0.03860038       2.08740000       1.39272000       3.06742000        1
2
Lattice="2.6528336296738044 0.0 0.2808236475575958 0.0 2.6528336296738044 0.0 0.0 0.0 3.8250280122051756" Properties=species:S:1:pos:R:3:forces:R:3:tags:I:1 config_type=FLD_TiAl spacegroup="P 1" virial="4.878552274056006 -0.11152805381690978 -4.095029909749131 -0.11152805381690978 5.309063088878136 0.2195673066662024 -4.095029909749131 0.2195673066662024 4.548456426067782" energy=-1703.34864875 unit_cell=conventional n_minim_iter=2 pbc="T T T"
Ti       1.41861074       1.28313583       1.87710259      -2.18571000       0.26707000       3.33217000        0
Al      -0.06230180      -0.01369658       0.07247966       2.18571000      -0.26707000      -3.33217000        1
2
Lattice="2.6528336296738044 0.0 0.0 -0.2010027009720987 2.6528336296738044 0.0 0.0 0.0 3.8250280122051756" Properties=species:S:1:pos:R:3:forces:R:3:tags:I:1 config_type=FLD_TiAl spacegroup="P 1" virial="3.5039225214186134 0.7812647664931553 0.7525174833551702 0.7812647664931553 3.9967678682992394 0.37629016020784967 0.7525174833551702 0.37629016020784967 4.725972466171015" energy=-1703.74998565 unit_cell=conventional n_minim_iter=2 pbc="T T T"
Ti       1.21397732       1.22723267       2.00434528       1.60387000       0.76404000       1.58511000        0
Al       0.21699030      -0.03524555       0.22589468      -1.60387000      -0.76404000      -1.58511000        1
2
Lattice="2.6528336296738044 0.0 0.0 0.12958846054199746 2.6528336296738044 0.0 0.0 0.0 3.8250280122051756" Properties=species:S:1:pos:R:3:forces:R:3:tags:I:1 config_type=FLD_TiAl spacegroup="P 1" virial="3.702918923424513 -0.46476138116234506 -0.36790561296547236 -0.46476138116234506 3.812814221748849 0.09646043235883739 -0.36790561296547236 0.09646043235883739 3.915032981849711" energy=-1703.92709554 unit_cell=conventional n_minim_iter=2 pbc="T T T"
Ti       1.36678041       1.21349895       2.00464746       0.75503000      -0.18201000      -1.48716000        0
Al       0.08220707      -0.12596980      -0.04804235      -0.75503000       0.18201000       1.48716000        1
2
Lattice="2.6528336296738044 0.0 0.0 0.0 2.327017215711117 0.0 0.0 0.0 3.8250280122051756" Properties=species:S:1:pos:R:3:forces:R:3:tags:I:1 config_type=FLD_TiAl spacegroup="P 1" virial="6.577851601550628 0.21180369010313946 0.10747024599599805 0.21180369010313946 9.31653034118274 0.4703002473756658 0.10747024599599805 0.4703002473756658 10.391473175314902" energy=-1702.37103033 unit_cell=conventional n_minim_iter=2 pbc="T T T"
Ti       1.30006357       1.55551560       1.88565848      -0.56257000      -2.48903000      -0.92219000        0
Al      -0.08632851      -0.10609570      -0.07570878       0.56257000       2.48903000       0.92219000        1
2
Lattice="2.6528336296738044 0.0 0.0 0.0 2.6755136697017905 0.0 0.0 0.0 3.8250280122051756" Properties=species:S:1:pos:R:3:forces:R:3:tags:I:1 config_type=FLD_TiAl spacegroup="P 1" virial="4.225429959590557 -0.029447179960487357 -0.05055471169167838 -0.029447179960487357 3.3266674797427895 1.1032465334075818 -0.05055471169167838 1.1032465334075818 4.606608276609312" energy=-1703.70119534 unit_cell=conventional n_minim_iter=2 pbc="T T T"
Ti       1.33685837       1.46366918       1.94252518       0.08471000      -1.85065000      -1.96798000        0
Al       0.02129430      -0.14391856      -0.14400848      -0.08471000       1.85065000       1.96798000        1
2
Lattice="2.6528336296738044 0.0 0.0 0.0 2.6528336296738044 -0.11079653029880113 0.0 0.0 3.8250280122051756" Properties=species:S:1:pos:R:3:forces:R:3:tags:I:1 config_type=FLD_TiAl spacegroup="P 1" virial="4.080145423039661 0.020791842453339242 -0.06782202198882797 0.020791842453339242 3.840915156833743 0.5357223999476088 -0.06782202198882797 0.5357223999476088 4.141806724880134" energy=-1703.83683987 unit_cell=conventional n_minim_iter=2 pbc="T T T"
Ti       1.28598232       1.39092312       1.86677645      -0.12472000      -0.95682000       1.63326000        0
Al      -0.05707837      -0.10421392       0.18464523       0.12472000       0.95682000      -1.63326000        1
2
Lattice="2.6528336296738044 0.0 0.0 0.0 2.6528336296738044 0.11989782550656514 0.0 0.0 3.8250280122051756" Properties=species:S:1:pos:R:3:forces:R:3:tags:I:1 config_type=FLD_TiAl spacegroup="P 1" virial="3.980537929234908 -0.04260991155296818 0.4453094466173489 -0.04260991155296818 4.076936532614401 -1.3260103331138138 0.4453094466173489 -1.3260103331138138 3.924831530967526" energy=-1703.85390951 unit_cell=conventional n_minim_iter=2 pbc="T T T"
Ti       1.14376657       1.23874862       1.90868104       0.75412000      -0.17818000       1.82784000        0
Al      -0.07976275      -0.07335350       0.11341309      -0.75412000       0.17818000      -1.82784000        1
2
Lattice="2.6528336296738044 0.0 0.0 0.0 2.6528336296738044 0.0 -0.14200409944431686 0.0 3.8250280122051756" Properties=species:S:1:pos:R:3:forces:R:3:tags:I:1 config_type=FLD_TiAl spacegroup="P 1" virial="3.593510528312514 -0.023104716718700073 1.669120341186346 -0.023104716718700073 4.049180865335354 -0.04253363340997284 1.669120341186346 -0.04253363340997284 4.354038896817503" energy=-1703.81834426 unit_cell=conventional n_minim_iter=2 pbc="T T T"
Ti       1.49828270       1.36599444       2.01988637      -1.42125000       0.08415000      -1.66072000        0
Al       0.05543708       0.05085482      -0.02553206       1.42125000      -0.08415000       1.66072000        1
2
Lattice="2.6528336296738044 0.0 0.0 0.0 2.6528336296738044 0.0 0.1878944627629673 0.0 3.8250280122051756" Properties=species:S:1:pos:R:3:forces:R:3:tags:I:1 config_type=FLD_TiAl spacegroup="P 1" virial="3.4310725265062647 -0.06646984909273441 -1.3115584812462215 -0.06646984909273441 3.639897216024936 -0.03960582962178616 -1.3115584812462215 -0.03960582962178616 3.979967691311282" energy=-1703.96766853 unit_cell=conventional n_minim_iter=2 pbc="T T T"
Ti       1.25671128       1.35313350       1.92894250       0.83821000      -0.44928000       0.15879000        0
Al      -0.02793015      -0.03825121       0.05133570      -0.83821000       0.44928000      -0.15879000        1
2
Lattice="2.6528336296738044 0.0 0.0 0.0 2.6528336296738044 0.0 0.0 -0.16803646940439299 3.8250280122051756" Properties=species:S:1:pos:R:3:forces:R:3:tags:I:1 config_type=FLD_TiAl spacegroup="P 1" virial="3.410062938516974 0.09786368136830227 0.30468581761305025 0.09786368136830227 3.772986110225779 1.4318313033156012 0.30468581761305025 1.4318313033156012 4.513731557530043" energy=-1703.84352026 unit_cell=conventional n_minim_iter=2 pbc="T T T"
Ti       1.42182067       1.36087250       1.94908510      -1.54216000      -0.33361000      -0.61946000        0
Al      -0.13979107       0.08185785      -0.01423675       1.54216000       0.33361000       0.61946000        1
2
Lattice="2.6528336296738044 0.0 0.0 0.0 2.6528336296738044 0.0 0.0 0.19859699410545423 3.8250280122051756" Properties=species:S:1:pos:R:3:forces:R:3:tags:I:1 config_type=FLD_TiAl spacegroup="P 1" virial="3.6956708197046484 0.007486178893046816 0.024928839622885928 0.007486178893046816 3.533913272698247 -1.3422325435557276 0.024928839622885928 -1.3422325435557276 3.8195268663459694" energy=-1703.98259439 unit_cell=conventional n_minim_iter=2 pbc="T T T"
Ti       1.37481776       1.32613720       1.98912932      -0.08785000      -0.49113000      -0.74034000        0
Al       0.03581856      -0.19395938      -0.01006747       0.08785000       0.49113000       0.74034000        1
2
Lattice="2.6528336296738044 0.0 0.0 0.0 2.6528336296738044 0.0 0.0 0.0 3.562823884442083" Properties=species:S:1:pos:R:3:forces:R:3:tags:I:1 config_type=FLD_TiAl spacegroup="P 1" virial="6.520001478843256 -0.17294449861664335 0.10917946699574846 -0.17294449861664335 5.025340023306654 -0.6975461340246166 0.10917946699574846 -0.6975461340246166 8.148489312094455" energy=-1703.20795596 unit_cell=conventional n_minim_iter=2 pbc="T T T"
Ti       1.41034451       1.06976312       1.95767909      -0.44119000       2.79307000      -1.15492000        0
Al       0.04157521       0.07462156       0.10132671       0.44119000      -2.79307000       1.15492000        1
2