4
Lattice="3.520000004905587 0.0 0.0 0.0 3.520000004905587 0.0 0.0 0.0 3.520000004905587" Properties=species:S:1:pos:R:3:forces:R:3:magmoms:R:1 energy=-18682.0779613132 free_energy=-18682.0779613132 stress="0.03941007931720607 0.0 0.0 0.0 0.03929898224576693 -0.0 0.0 -0.0 0.03929990040338213" pbc="T T T"
Ni       0.10000003       0.00000000       0.00000000      -0.90873533      -0.00000000      -0.00000051       0.00000000
Ni       0.00000000       1.76000000       1.76000000       0.02569458      -0.00000077       0.00000051       0.00000000
Ni       1.76000000       0.00000000       1.76000000       0.44150289       0.00000000      -0.00000077       0.00000000
Ni       1.76000000       1.76000000       0.00000000       0.44153786       0.00000077       0.00000077       0.00000000
4
Lattice="3.520000004905587 0.0 0.0 0.0 3.520000004905587 0.0 0.0 0.0 3.520000004905587" Properties=species:S:1:pos:R:3:forces:R:3:magmoms:R:1 energy=-18682.072140662134 free_energy=-18682.072140662134 stress="0.0393503990722181 -0.00017904073496389307 0.000180877050194292 -0.00017904073496389307 0.03921359358755338 -3.672630460797807e-06 0.000180877050194292 -3.672630460797807e-06 0.03921359358755338" pbc="T T T"
Ni       0.10367169       0.00145585       3.51949262      -0.97867345      -0.02691457       0.01645172       0.00000000
Ni       0.00126505       1.75951522       1.75990868      -0.00849184       0.01491086      -0.00919684       0.00000000
Ni       1.75752917       0.00053743       1.76213751       0.49298178      -0.01516514      -0.03361075       0.00000000
Ni       1.75753409       1.75849150       3.51846121       0.49418325       0.02716859       0.02635612       0.00000000
4
Lattice="3.520000004905587 0.0 0.0 0.0 3.520000004905587 0.0 0.0 0.0 3.520000004905587" Properties=species:S:1:pos:R:3:forces:R:3:magmoms:R:1 energy=-18682.065894425024 free_energy=-18682.065894425024 stress="0.038988644971829516 -0.0003727719917709774 0.00037460830700137627 -0.0003727719917709774 0.038811440552096024 -1.652683707359013e-05 0.00037460830700137627 -1.652683707359013e-05 0.03881786765540242" pbc="T T T"
Ni       0.10719754       0.00290944       3.51898710      -1.03303325      -0.04947342       0.03068894       0.00000000
Ni       0.00253043       1.75903211       1.75981582      -0.03873650       0.02730332      -0.01672760       0.00000000
Ni       1.75513100       0.00107322       1.76427261       0.53534636      -0.02832533      -0.06280871       0.00000000
Ni       1.75514103       1.75698522       3.51692447       0.53642339       0.05049518       0.04884736       0.00000000
4
Lattice="3.520000004905587 0.0 0.0 0.0 3.520000004905587 0.0 0.0 0.0 3.520000004905587" Properties=species:S:1:pos:R:3:forces:R:3:magmoms:R:1 energy=-18682.06037881357 free_energy=-18682.06037881357 stress="0.038526811691384194 -0.0005490582538892722 0.0005472219386588731 -0.0005490582538892722 0.03831379912465792 -3.2135516531980806e-05 0.0005472219386588731 -3.2135516531980806e-05 0.03832573517365551" pbc="T T T"
Ni       0.11002574       0.00413335       3.51856354      -1.07604781      -0.06820725       0.04277544       0.00000000
Ni       0.00359652       1.75862701       1.75973458      -0.06319669       0.03769289      -0.02289567       0.00000000
Ni       1.75318160       0.00152280       1.76607186       0.56962688      -0.03934276      -0.08707324       0.00000000
Ni       1.75319613       1.75571684       3.51563003       0.56961762       0.06985713       0.06719321       0.00000000
4
Lattice="3.520000004905587 0.0 0.0 0.0 3.520000004905587 0.0 0.0 0.0 3.520000004905587" Properties=species:S:1:pos:R:3:forces:R:3:magmoms:R:1 energy=-18682.05355447061 free_energy=-18682.05355447061 stress="0.03789879188258777 -0.0007675797663067416 0.0007611526630003455 -0.0007675797663067416 0.03764905301125352 -5.876208737276491e-05 0.0007611526630003455 -5.876208737276491e-05 0.037669252478787905" pbc="T T T"
Ni       0.11322894       0.00558070       3.51806560      -1.12793910      -0.09199253       0.05781254       0.00000000
Ni       0.00485667       1.75815028       1.75963428      -0.09312998       0.05055509      -0.03068612       0.00000000
Ni       1.75094726       0.00205225       1.76820162       0.61046448      -0.05270916      -0.11719680       0.00000000
Ni       1.75096713       1.75421677       3.51409851       0.61060460       0.09414660       0.09007037       0.00000000
4
Lattice="3.520000004905587 0.0 0.0 0.0 3.520000004905587 0.0 0.0 0.0 3.520000004905587" Properties=species:S:1:pos:R:3:forces:R:3:magmoms:R:1 energy=-18682.045168466335 free_energy=-18682.045168466335 stress="0.03720007393742099 -0.0010411907356361783 0.0010246638985625881 -0.0010411907356361783 0.03689708192440516 -0.00010007918005674023 0.0010246638985625881 -0.00010007918005674023 0.036932890071397946" pbc="T T T"
Ni       0.11681027       0.00726319       3.51749079      -1.18642578      -0.11980801       0.07530633       0.00000000
Ni       0.00631954       1.75759922       1.75951199      -0.12715853       0.06537955      -0.03957416       0.00000000
Ni       1.74842201       0.00266479       1.77068018       0.65660935      -0.06820442      -0.15238748       0.00000000
Ni       1.74844818       1.75247281       3.51231706       0.65697496       0.12263288       0.11665532       0.00000000
4
Lattice="3.520000004905587 0.0 0.0 0.0 3.520000004905587 0.0 0.0 0.0 3.520000004905587" Properties=species:S:1:pos:R:3:forces:R:3:magmoms:R:1 energy=-18682.035544071976 free_energy=-18682.035544071976 stress="0.036582153862391754 -0.0013588732704951886 0.0013258195963480083 -0.0013588732704951886 0.03621030002823598 -0.0001579231098143057 0.0013258195963480083 -0.0001579231098143057 0.03626355316991755" pbc="T T T"
Ni       0.12054004       0.00908275       3.51687444      -1.24793891      -0.14995779       0.09465568       0.00000000
Ni       0.00789805       1.75700728       1.75937230      -0.16289173       0.08119364      -0.04886124       0.00000000
Ni       1.74576440       0.00332345       1.77336437       0.70557550      -0.08492277      -0.19093346       0.00000000
Ni       1.74579751       1.75058653       3.51038890       0.70525488       0.15368692       0.14513903       0.00000000
4
Lattice="3.520000004905587 0.0 0.0 0.0 3.520000004905587 0.0 0.0 0.0 3.520000004905587" Properties=species:S:1:pos:R:3:forces:R:3:magmoms:R:1 energy=-18682.025624298043 free_energy=-18682.025624298043 stress="0.035705313339876275 -0.0016848192238909938 0.0016334023974398247 -0.0016848192238909938 0.03527010663027174 -0.00022494861572386565 0.0016334023974398247 -0.00022494861572386565 0.035346313712333294" pbc="T T T"
Ni       0.12404062       0.01086111       3.51627879      -1.30490350      -0.17927660       0.11335942       0.00000000
Ni       0.00943578       1.75643373       1.75922648      -0.19657241       0.09623613      -0.05786036       0.00000000
Ni       1.74324184       0.00396248       1.77599246       0.75076315      -0.10089163      -0.22810133       0.00000000
Ni       1.74328177       1.74874268       3.50850227       0.75071276       0.18393209       0.17260253       0.00000000
4
Lattice="3.520000004905587 0.0 0.0 0.0 3.520000004905587 0.0 0.0 0.0 3.520000004905587" Properties=species:S:1:pos:R:3:forces:R:3:magmoms:R:1 energy=-18682.013379175303 free_energy=-18682.013379175303 stress="0.03488172595904237 -0.002088808574578753 0.0020107651772867993 -0.002088808574578753 0.03436388506406988 -0.0003204370077046086 0.0020107651772867993 -0.0003204370077046086 0.034474063977893814" pbc="T T T"
Ni       0.12798133       0.01293750       3.51559153      -1.37216716      -0.21517048       0.13611600       0.00000000
Ni       0.01122480       1.75576998       1.75904506      -0.23663765       0.11443877      -0.06860012       0.00000000
Ni       1.74037294       0.00470299       1.77906664       0.80410249      -0.11988617      -0.27294805       0.00000000
Ni       1.74042093       1.74658953       3.50629678       0.80470232       0.22061762       0.20543191       0.00000000
4
Lattice="3.520000004905587 0.0 0.0 0.0 3.520000004905587 0.0 0.0 0.0 3.520000004905587" Properties=species:S:1:pos:R:3:forces:R:3:magmoms:R:1 energy=-18681.997455889807 free_energy=-18681.997455889807 stress="0.03351091663954959 -0.0026130765728576396 0.002492797925266511 -0.0026130765728576396 0.032866369993679576 -0.0004572424923693269 0.002492797925266511 -0.0004572424923693269 0.03302612941872428" pbc="T T T"
Ni       0.13262179       0.01546074       3.51476635      -1.44175690      -0.25364138       0.16180621       0.00000000
Ni       0.01339096       1.75497040       1.75881115      -0.27891224       0.13374262      -0.08056963       0.00000000
Ni       1.73696463       0.00559622       1.78280942       0.85993965      -0.14091111      -0.32134727       0.00000000
Ni       1.73702263       1.74397263       3.50361308       0.86072949       0.26080988       0.24011044       0.00000000
4
Lattice="3.520000004905587 0.0 0.0 0.0 3.520000004905587 0.0 0.0 0.0 3.520000004905587" Properties=species:S:1:pos:R:3:forces:R:3:magmoms:R:1 energy=-18681.980700752305 free_energy=-18681.980700752305 stress="0.03196841184601451 -0.003162134826746912 0.0029950301407806116 -0.003162134826746912 0.031197159449246968 -0.0006170019174140315 0.0029950301407806116 -0.0006170019174140315 0.03141476280404924" pbc="T T T"
Ni       0.13703800       0.01794367       3.51396650      -1.51964718      -0.29770058       0.19006752       0.00000000
Ni       0.01551308       1.75419182       1.75856496      -0.32560785       0.15509408      -0.09281117       0.00000000
Ni       1.73369039       0.00646731       1.78650085       0.92201096      -0.16418268      -0.37741840       0.00000000
Ni       1.73375852       1.74139720       3.50096770       0.92324406       0.30678943       0.28016231       0.00000000
4
Lattice="3.520000004905587 0.0 0.0 0.0 3.520000004905587 0.0 0.0 0.0 3.520000004905587" Properties=species:S:1:pos:R:3:forces:R:3:magmoms:R:1 energy=-18681.970605464947 free_energy=-18681.970605464947 stress="0.03149188804372599 -0.0034990986715251102 0.0033007766266420287 -0.0034990986715251102 0.030652691983433695 -0.0007225900431619684 0.0033007766266420287 -0.0007225900431619684 0.03090702164284394" pbc="T T T"
Ni       0.13947722       0.01940074       3.51351160      -1.56703056      -0.32584027       0.20742760       0.00000000
Ni       0.01674747       1.75374442       1.75840166      -0.35409978       0.16836303      -0.10006785       0.00000000
Ni       1.73185043       0.00696931       1.78867714       0.95969639      -0.17827361      -0.41263532       0.00000000
Ni       1.73192488       1.73988553       3.49940961       0.96143420       0.33575085       0.30527556       0.00000000
4
Lattice="3.520000004905587 0.0 0.0 0.0 3.520000004905587 0.0 0.0 0.0 3.520000004905587" Properties=species:S:1:pos:R:3:forces:R:3:magmoms:R:1 energy=-18681.957320867343 free_energy=-18681.957320867343 stress="0.030403871269714645 -0.003946241430127243 0.003703847819714588 -0.003946241430127243 0.02945908708367441 -0.0008713315768242797 0.003703847819714588 -0.0008713315768242797 0.029767588042381426" pbc="T T T"
Ni       0.14246646       0.02128027       3.51294108      -1.62213264      -0.36002335       0.22915471       0.00000000
Ni       0.01832775       1.75317782       1.75816999      -0.38785374       0.18425734      -0.10860828       0.00000000
Ni       1.72956136       0.00760669       1.79149583       1.00414511      -0.19588541      -0.45650451       0.00000000
Ni       1.72964444       1.73793522       3.49739311       1.00584127       0.37165116       0.33595808       0.00000000
4
Lattice="3.520000004905587 0.0 0.0 0.0 3.520000004905587 0.0 0.0 0.0 3.520000004905587" Properties=species:S:1:pos:R:3:forces:R:3:magmoms:R:1 energy=-18681.937962552805 free_energy=-18681.937962552805 stress="0.02877597781796602 -0.004594460706458057 0.004281368959675043 -0.004594460706458057 0.027662252630729082 -0.0011027072958545415 0.004281368959675043 -0.0011027072958545415 0.028056142247649647" pbc="T T T"
Ni       0.14648158       0.02390641       3.51216239      -1.68808889      -0.40299317       0.25770141       0.00000000
Ni       0.02052265       1.75239779       1.75782275      -0.42927498       0.20420164      -0.12034614       0.00000000
Ni       1.72645005       0.00848591       1.79544701       1.05737646      -0.21819204      -0.51054447       0.00000000
Ni       1.72654572       1.73520989       3.49456786       1.05998741       0.41698357       0.37318920       0.00000000
4
Lattice="3.520000004905587 0.0 0.0 0.0 3.520000004905587 0.0 0.0 0.0 3.520000004905587" Properties=species:S:1:pos:R:3:forces:R:3:magmoms:R:1 energy=-18681.925812805966 free_energy=-18681.925812805966 stress="0.027959735698053705 -0.005008549790913009 0.004650468320985222 -0.005008549790913009 0.026751440276451224 -0.0012587940904384481 0.004650468320985222 -0.0012587940904384481 0.027200419350283757" pbc="T T T"
Ni       0.14878996       0.02552413       3.51170397      -1.73669431      -0.43568192       0.27751562       0.00000000
Ni       0.02186050       1.75193030       1.75758213      -0.45980195       0.21869752      -0.12736448       0.00000000
Ni       1.72462271       0.00901470       1.79789571       1.09676576      -0.23435580      -0.55277330       0.00000000
Ni       1.72472683       1.73353088       3.49281819       1.09973076       0.45134045       0.40262190       0.00000000
4
Lattice="3.520000004905587 0.0 0.0 0.0 3.520000004905587 0.0 0.0 0.0 3.520000004905587" Properties=species:S:1:pos:R:3:forces:R:3:magmoms:R:1 energy=-18681.91195064674 free_energy=-18681.91195064674 stress="0.026615552949401707 -0.0054832372779711255 0.005069148193516173 -0.0054832372779711255 0.025273206515980105 -0.0014497708743999342 0.005069148193516173 -0.0014497708743999342 0.025793801883798196" pbc="T T T"
Ni       0.15123254       0.02735615       3.51120854      -1.77890000      -0.46614383       0.29756611       0.00000000
Ni       0.02336025       1.75141515       1.75728006      -0.48693969       0.23220867      -0.13502328       0.00000000
Ni       1.72264635       0.00959938       1.80068521       1.13107353      -0.25004672      -0.59176279       0.00000000
Ni       1.72276085       1.73162932       3.49082620       1.13476589       0.48398189       0.42922022       0.00000000
4
Lattice="3.520000004905587 0.0 0.0 0.0 3.520000004905587 0.0 0.0 0.0 3.520000004905587" Properties=species:S:1:pos:R:3:forces:R:3:magmoms:R:1 energy=-18681.889957317846 free_energy=-18681.889957317846 stress="0.024860035589140354 -0.006239799152895474 0.005731139834074978 -0.006239799152895474 0.023311103692298878 -0.0017711260397197423 0.005731139834074978 -0.0017711260397197423 0.0239501413924777" pbc="T T T"
Ni       0.15480931       0.03017245       3.51047333      -1.84958451      -0.51824209       0.33006897       0.00000000
Ni       0.02564957       1.75063880       1.75678309      -0.53291487       0.25467702      -0.14627700       0.00000000
Ni       1.71970485       0.01048261       1.80499156       1.18878966      -0.27624035      -0.65926093       0.00000000
Ni       1.71983627       1.72870613       3.48775202       1.19370998       0.53980542       0.47546871       0.00000000
4
Lattice="3.520000004905587 0.0 0.0 0.0 3.520000004905587 0.0 0.0 0.0 3.520000004905587" Properties=species:S:1:pos:R:3:forces:R:3:magmoms:R:1 energy=-18681.87504738428 free_energy=-18681.87504738428 stress="0.023704993309219442 -0.006756721890252766 0.006181037065522709 -0.006756721890252766 0.022009156193946056 -0.002004338073980403 0.006181037065522709 -0.002004338073980403 0.02273450070995362" pbc="T T T"
Ni       0.15701473       0.03205333       3.51001228      -1.89340793      -0.55252570       0.35142764       0.00000000
Ni       0.02716132       1.75013752       1.75641461      -0.56181509       0.26921558      -0.15329766       0.00000000
Ni       1.71783999       0.01105498       1.80788809       1.22474036      -0.29322455      -0.70353044       0.00000000
Ni       1.71798396       1.72675416       3.48568503       1.23048266       0.57653440       0.50540046       0.00000000
4
Lattice="3.520000004905587 0.0 0.0 0.0 3.520000004905587 0.0 0.0 0.0 3.520000004905587" Properties=species:S:1:pos:R:3:forces:R:3:magmoms:R:1 energy=-18681.85817401332 free_energy=-18681.85817401332 stress="0.022379173712871434 -0.007347097236826012 0.006691532699573603 -0.007347097236826012 0.020506132177864556 -0.0022862124618466344 0.006691532699573603 -0.0022862124618466344 0.02133798297723526" pbc="T T T"
Ni       0.15930294       0.03416830       3.50952710      -1.94109624      -0.59159798       0.37540806       0.00000000
Ni       0.02884310       1.74959262       1.75596001      -0.59395774       0.28540531      -0.16080810       0.00000000
Ni       1.71584722       0.01167934       1.81116777       1.26415409      -0.31268625      -0.75475068       0.00000000
Ni       1.71600674       1.72455974       3.48334513       1.27089989       0.61887893       0.54015072       0.00000000
4
Lattice="3.520000004905587 0.0 0.0 0.0 3.520000004905587 0.0 0.0 0.0 3.520000004905587" Properties=species:S:1:pos:R:3:forces:R:3:magmoms:R:1 energy=-18681.845816915735 free_energy=-18681.845816915735 stress="0.0214353076844464 -0.00778781289212175 0.007069813637035779 -0.00778781289212175 0.0194236243495444 -0.0025093247623401015 0.007069813637035779 -0.0025093247623401015 0.020340863807128653" pbc="T T T"
Ni       0.16080465       0.03574137       3.50920312      -1.97340935      -0.62032517       0.39272598       0.00000000
Ni       0.03007497       1.74920780       1.75557757      -0.61654951       0.29709200      -0.16585775       0.00000000
Ni       1.71447379       0.01212248       1.81363217       1.29121392      -0.32686203      -0.79259654       0.00000000
Ni       1.71464659       1.72292834       3.48158715       1.29874494       0.65009546       0.56572831       0.00000000
4
Lattice="3.520000004905587 0.0 0.0 0.0 3.520000004905587 0.0 0.0 0.0 3.520000004905587" Properties=species:S:1:pos:R:3:forces:R:3:magmoms:R:1 energy=-18681.83116426581 free_energy=-18681.83116426581 stress="0.020292201453523083 -0.008319426151322232 0.007522465341329107 -0.008319426151322232 0.01810331369888759 -0.0027939536230519313 0.007522465341329107 -0.0027939536230519313 0.019129813912680576" pbc="T T T"
Ni       0.16239918       0.03763435       3.50885403      -2.00988791      -0.65509677       0.41318553       0.00000000
Ni       0.03153723       1.74876709       1.75506862      -0.64306221       0.31091682      -0.17136814       0.00000000
Ni       1.71293643       0.01263233       1.81662531       1.32218594      -0.34405088      -0.83917362       0.00000000
Ni       1.71312716       1.72096622       3.47945204       1.33076417       0.68823084       0.59735648       0.00000000
4
Lattice="3.520000004905587 0.0 0.0 0.0 3.520000004905587 0.0 0.0 0.0 3.520000004905587" Properties=species:S:1:pos:R:3:forces:R:3:magmoms:R:1 energy=-18681.812380519637 free_energy=-18681.812380519637 stress="0.018816722165897564 -0.009004371732261023 0.008101822796519961 -0.009004371732261023 0.016384522643234214 -0.0031841706095116985 0.008101822796519961 -0.0031841706095116985 0.017563437021150312" pbc="T T T"
Ni       0.16421859       0.04006068       3.50845158      -2.05385685      -0.69967327       0.43899812       0.00000000
Ni       0.03339039       1.74822659       1.75436280      -0.67594713       0.32831753      -0.17782932       0.00000000
Ni       1.71108751       0.01326004       1.82049204       1.35989991      -0.36612021      -0.89948193       0.00000000
Ni       1.71130352       1.71845270       3.47669359       1.36990433       0.73747620       0.63831313       0.00000000
4
Lattice="3.520000004905587 0.0 0.0 0.0 3.520000004905587 0.0 0.0 0.0 3.520000004905587" Properties=species:S:1:pos:R:3:forces:R:3:magmoms:R:1 energy=-18681.800264514917 free_energy=-18681.800264514917 stress="0.0179178458606173 -0.009455187121323955 0.008481021891597336 -0.009455187121323955 0.015312114548681257 -0.003461454209301933 0.008481021891597336 -0.003461454209301933 0.016600289682806087" pbc="T T T"
Ni       0.16519338       0.04167448       3.50823360      -2.07929946      -0.72862955       0.45530149       0.00000000
Ni       0.03460118       1.74789362       1.75383466      -0.69615729       0.33941981      -0.18146203       0.00000000
Ni       1.70998498       0.01364905       1.82309706       1.38222095      -0.38038057      -0.93887020       0.00000000
Ni       1.71022046       1.71678284       3.47483470       1.39323607       0.76959005       0.66503075       0.00000000
4
Lattice="3.520000004905587 0.0 0.0 0.0 3.520000004905587 0.0 0.0 0.0 3.520000004905587" Properties=species:S:1:pos:R:3:forces:R:3:magmoms:R:1 energy=-18681.783543391644 free_energy=-18681.783543391644 stress="0.01663242519933807 -0.010085961402965977 0.009005289889876223 -0.010085961402965977 0.01376777343991578 -0.0038737069785264866 0.009005289889876223 -0.0038737069785264866 0.01522213510239171" pbc="T T T"
Ni       0.16631230       0.04394452       3.50798190      -2.11234971      -0.76968364       0.47765800       0.00000000
Ni       0.03628133       1.74745437       1.75302712      -0.72399874       0.35472790      -0.18576657       0.00000000
Ni       1.70857023       0.01416475       1.82679790       1.41191590      -0.40074731      -0.99610321       0.00000000
Ni       1.70883614       1.71443637       3.47219309       1.42443255       0.81570305       0.70421179       0.00000000
4
Lattice="3.520000004905587 0.0 0.0 0.0 3.520000004905587 0.0 0.0 0.0 3.520000004905587" Properties=species:S:1:pos:R:3:forces:R:3:magmoms:R:1 energy=-18681.772007261512 free_energy=-18681.772007261512 stress="0.015796901769506568 -0.01053126784633771 0.009371634778340803 -0.01053126784633771 0.012731173492355597 -0.004191389513385497 0.009371634778340803 -0.004191389513385497 0.014314995378574651" pbc="T T T"
Ni       0.16685603       0.04558868       3.50785997      -2.13206467      -0.79860315       0.49275295       0.00000000
Ni       0.03747448       1.74716789       1.75237151      -0.74238624       0.36531134      -0.18811502       0.00000000
Ni       1.70768901       0.01450349       1.82951819       1.43039776      -0.41506295      -1.03680223       0.00000000
Ni       1.70798048       1.71273994       3.47025034       1.44405315       0.84835451       0.73216431       0.00000000
4
Lattice="3.520000004905587 0.0 0.0 0.0 3.520000004905587 0.0 0.0 0.0 3.520000004905587" Properties=species:S:1:pos:R:3:forces:R:3:magmoms:R:1 energy=-18681.764069564782 free_energy=-18681.764069564782 stress="0.015246925358002095 -0.010854459326887918 0.009634227856287847 -0.010854459326887918 0.012017765025345623 -0.004446637330410945 0.009634227856287847 -0.004446637330410945 0.013709011352543012" pbc="T T T"
Ni       0.16698345       0.04684326       3.50783365      -2.14272446      -0.82005541       0.50304945       0.00000000
Ni       0.03835986       1.74698409       1.75179329      -0.75497899       0.37287449      -0.18896863       0.00000000
Ni       1.70717085       0.01472342       1.83163769       1.44159003      -0.42563096      -1.06788919       0.00000000
Ni       1.70748583       1.71144923       3.46873538       1.45611342       0.87281162       0.75380837       0.00000000
4
Lattice="3.520000004905587 0.0 0.0 0.0 3.520000004905587 0.0 0.0 0.0 3.520000004905587" Properties=species:S:1:pos:R:3:forces:R:3:magmoms:R:1 energy=-18681.748745746074 free_energy=-18681.748745746074 stress="0.01409831018138758 -0.011485233608529943 0.010141969017493143 -0.011485233608529943 0.010516577324494519 -0.0049883503233786215 0.010141969017493143 -0.0049883503233786215 0.012440117528337371" pbc="T T T"
Ni       0.16692300       0.04936851       3.50785545      -2.15998094      -0.86317744       0.52260397       0.00000000
Ni       0.04011486       1.74665305       1.75054218      -0.77924275       0.38762388      -0.18954095       0.00000000
Ni       1.70629762       0.01512271       1.83595275       1.46144666      -0.44700068      -1.13209837       0.00000000
Ni       1.70666453       1.70885573       3.46564964       1.47777728       0.92255424       0.79903561       0.00000000
4
Lattice="3.520000004905587 0.0 0.0 0.0 3.520000004905587 0.0 0.0 0.0 3.520000004905587" Properties=species:S:1:pos:R:3:forces:R:3:magmoms:R:1 energy=-18681.725267083788 free_energy=-18681.725267083788 stress="0.012403391223729394 -0.01242726332172458 0.010888431158650298 -0.01242726332172458 0.008229446705032685 -0.005879881367737289 0.010888431158650298 -0.005879881367737289 0.010539531264874506" pbc="T T T"
Ni       0.16649523       0.05321878       3.50797025      -2.18203098      -0.92812582       0.55096478       0.00000000
Ni       0.04276310       1.74619053       1.74853963      -0.81441878       0.40951297      -0.18931110       0.00000000
Ni       1.70514517       0.01568374       1.84258471       1.48856743      -0.48003113      -1.23045593       0.00000000
Ni       1.70559650       1.70490695       3.46090543       1.50788258       0.99864398       0.86880224       0.00000000
4
Lattice="3.520000004905587 0.0 0.0 0.0 3.520000004905587 0.0 0.0 0.0 3.520000004905587" Properties=species:S:1:pos:R:3:forces:R:3:magmoms:R:1 energy=-18681.71350537128 free_energy=-18681.71350537128 stress="0.01168814644148902 -0.012897360020706697 0.01125293973188448 -0.012897360020706697 0.007167138344246919 -0.006388540686557784 0.01125293973188448 -0.006388540686557784 0.009701253362197407" pbc="T T T"
Ni       0.16591674       0.05526043       3.50812017      -2.18835872      -0.96094029       0.56419799       0.00000000
Ni       0.04414028       1.74599114       1.74737432      -0.83063679       0.42048618      -0.18820912       0.00000000
Ni       1.70472039       0.01592816       1.84615805       1.49904750      -0.49718090      -1.28099481       0.00000000
Ni       1.70522259       1.70282026       3.45834746       1.51994800       1.03763502       0.90500620       0.00000000
4
Lattice="3.520000004905587 0.0 0.0 0.0 3.520000004905587 0.0 0.0 0.0 3.520000004905587" Properties=species:S:1:pos:R:3:forces:R:3:magmoms:R:1 energy=-18681.702701771603 free_energy=-18681.702701771603 stress="0.010961883767866254 -0.013335321203156838 0.011584394630971481 -0.013335321203156838 0.00606259473316198 -0.0069293355219102615 0.011584394630971481 -0.0069293355219102615 0.00884093967675552" pbc="T T T"
Ni       0.16495677       0.05731195       3.50836851      -2.18896473      -0.99315442       0.57550725       0.00000000
Ni       0.04549603       1.74584106       1.74609002      -0.84540417       0.43072380      -0.18550098       0.00000000
Ni       1.70449350       0.01611496       1.84981034       1.50593960      -0.51414196      -1.33272901       0.00000000
Ni       1.70505371       1.70073203       3.45573114       1.52842930       1.07657283       0.94272274       0.00000000
4
Lattice="3.520000004905587 0.0 0.0 0.0 3.520000004905587 0.0 0.0 0.0 3.520000004905587" Properties=species:S:1:pos:R:3:forces:R:3:magmoms:R:1 energy=-18681.69120237684 free_energy=-18681.69120237684 stress="0.010208076365787504 -0.01379899079883256 0.011925031106210479 -0.01379899079883256 0.0048322635287947144 -0.0075904090048538675 0.011925031106210479 -0.0075904090048538675 0.007918191273480072" pbc="T T T"
Ni       0.16343634       0.05968844       3.50876325      -2.18330496      -1.02926119       0.58630665       0.00000000
Ni       0.04703744       1.74572230       1.74447804      -0.86049449       0.44173583      -0.18073595       0.00000000
Ni       1.70444551       0.01626614       1.85410820       1.50973661      -0.53341623      -1.39278587       0.00000000
Ni       1.70508071       1.69832311       3.45265051       1.53406310       1.12094184       0.98721543       0.00000000
4
Lattice="3.520000004905587 0.0 0.0 0.0 3.520000004905587 0.0 0.0 0.0 3.520000004905587" Properties=species:S:1:pos:R:3:forces:R:3:magmoms:R:1 energy=-18681.677987576437 free_energy=-18681.677987576437 stress="0.009440496599480762 -0.014308568275268255 0.012287703364214263 -0.014308568275268255 0.0034247279046939545 -0.008449804532680554 0.012287703364214263 -0.008449804532680554 0.00691648131529747" pbc="T T T"
Ni       0.16113973       0.06259456       3.50936251      -2.16966705      -1.07178286       0.59687851       0.00000000
Ni       0.04889269       1.74563715       1.74237157      -0.87662174       0.45430416      -0.17315403       0.00000000
Ni       1.70461597       0.01637901       1.85943599       1.50989370      -0.55674077      -1.46604225       0.00000000
Ni       1.70535162       1.69538929       3.44882995       1.53639509       1.17421947       1.04231777       0.00000000
4
Lattice="3.520000004905587 0.0 0.0 0.0 3.520000004905587 0.0 0.0 0.0 3.520000004905587" Properties=species:S:1:pos:R:3:forces:R:3:magmoms:R:1 energy=-18681.665147612843 free_energy=-18681.665147612843 stress="0.008804213372147544 -0.014765810767637581 0.012596204322921278 -0.014765810767637581 0.0020548367428163726 -0.00939367056110559 0.012596204322921278 -0.00939367056110559 0.006005668961019613" pbc="T T T"
Ni       0.15830725       0.06559132       3.51010632      -2.14844645      -1.11359337       0.60493224       0.00000000
Ni       0.05077619       1.74561442       1.74005319      -0.89083891       0.46632278      -0.16369160       0.00000000
Ni       1.70503378       0.01641611       1.86500672       1.50531842      -0.58083946      -1.54124008       0.00000000
Ni       1.70588279       1.69237815       3.44483378       1.53396694       1.22811005       1.09999944       0.00000000
4