MOLECULE
PRIMVEC
  5.291772   0.000000   0.000000
  0.000000   5.291772   0.000000
  0.000000   0.000000   5.291772
PRIMCOORD
3 1
 8   0.000000   0.000000   0.000000
 1   0.000000   0.597970   0.767307
 1   0.000000   0.597970  -0.767307
BEGIN_BLOCK_DATAGRID_3D
 n
 BEGIN_DATAGRID_3D_n
  55 55 55
    0.000000   0.000000   0.000000
    5.291772   0.000000   0.000000
    0.000000   5.291772   0.000000
    0.000000   0.000000   5.291772
  1.830307e-01 4.578509e-01 9.198596e-01 1.046073e+00 8.189109e-01 5.193748e-01 3.091640e-01 1.893966e-01 1.190906e-01 7.379567e-02 4.537943e-02 2.888729e-02 1.904601e-02 1.243685e-02 7.961005e-03 5.225688e-03 3.584416e-03 2.432816e-03 1.562717e-03 9.906454e-04 6.626272e-04 4.502731e-04 2.778604e-04 1.508479e-04 7.928122e-05 4.174731e-05 1.668133e-05 5.780705e-06 1.668133e-05 4.174731e-05 7.928122e-05 1.508479e-04 2.778604e-04 4.502731e-04 6.626272e-04 9.906454e-04 1.562717e-03 2.432816e-03 3.584416e-03 5.225688e-03 7.961005e-03 1.243685e-02 1.904601e-02 2.888729e-02 4.537943e-02 7.379567e-02 1.190906e-01 1.893966e-01 3.091640e-01 5.193748e-01 8.189109e-01 1.046073e+00 9.198596e-01 4.578509e-01 1.830307e-01
  3.474629e-01 5.645375e-01 9.181697e-01 9.843081e-01 7.602102e-01 4.851070e-01 2.929698e-01 1.818654e-01 1.151976e-01 7.169414e-02 4.432317e-02 2.837996e-02 1.877633e-02 1.227667e-02 7.871588e-03 5.179871e-03 3.558299e-03 2.416924e-03 1.556861e-03 9.919577e-04 6.653441e-04 4.509941e-04 2.769090e-04 1.494144e-04 7.758678e-05 3.992422e-05 1.515119e-05 4.520680e-06 1.515119e-05 3.992422e-05 7.758678e-05 1.494144e-04 2.769090e-04 4.509941e-04 6.653441e-04 9.919577e-04 1.556861e-03 2.416924e-03 3.558299e-03 5.179871e-03 7.871588e-03 1.227667e-02 1.877633e-02 2.837996e-02 4.432317e-02 7.169414e-02 1.151976e-01 1.818654e-01 2.929698e-01 4.851070e-01 7.602102e-01 9.843081e-01 9.181697e-01 5.645375e-01 3.474629e-01
  6.985469e-01 7.936654e-01 9.178797e-01 8.552988e-01 6.352735e-01 4.104729e-01 2.564107e-01 1.638450e-01 1.052404e-01 6.605342e-02 4.135942e-02 2.685019e-02 1.788849e-02 1.171923e-02 7.545045e-03 4.996031e-03 3.440185e-03 2.335948e-03 1.512749e-03 9.758277e-04 6.595621e-04 4.453188e-04 2.717309e-04 1.464151e-04 7.530689e-05 3.731773e-05 1.305136e-05 3.070796e-06 1.305136e-05 3.731773e-05 7.530689e-05 1.464151e-04 2.717309e-04 4.453188e-04 6.595621e-04 9.758277e-04 1.512749e-03 2.335948e-03 3.440185e-03 4.996031e-03 7.545045e-03 1.171923e-02 1.788849e-02 2.685019e-02 4.135942e-02 6.605342e-02 1.052404e-01 1.638450e-01 2.564107e-01 4.104729e-01 6.352735e-01 8.552988e-01 9.178797e-01 7.936654e-01 6.985469e-01
  8.224485e-01 8.287577e-01 7.952418e-01 6.657786e-01 4.826448e-01 3.214282e-01 2.109100e-01 1.396540e-01 9.113249e-02 5.794441e-02 3.704202e-02 2.452878e-02 1.648312e-02 1.083940e-02 7.047499e-03 4.724698e-03 3.264212e-03 2.210086e-03 1.438132e-03 9.405330e-04 6.392348e-04 4.278622e-04 2.599091e-04 1.418446e-04 7.357906e-05 3.529537e-05 1.140487e-05 2.156341e-06 1.140487e-05 3.529537e-05 7.357906e-05 1.418446e-04 2.599091e-04 4.278622e-04 6.392348e-04 9.405330e-04 1.438132e-03 2.210086e-03 3.264212e-03 4.724698e-03 7.047499e-03 1.083940e-02 1.648312e-02 2.452878e-02 3.704202e-02 5.794441e-02 9.113249e-02 1.396540e-01 2.109100e-01 3.214282e-01 4.826448e-01 6.657786e-01 7.952418e-01 8.287577e-01 8.224485e-01
  6.765132e-01 6.544536e-01 5.828676e-01 4.681556e-01 3.435449e-01 2.404732e-01 1.663814e-01 1.136311e-01 7.526954e-02 4.880829e-02 3.210730e-02 2.172905e-02 1.470455e-02 9.726687e-03 6.431656e-03 4.389568e-03 3.041388e-03 2.048433e-03 1.340096e-03 8.893261e-04 6.052255e-04 3.992541e-04 2.421196e-04 1.359970e-04 7.246805e-05 3.394065e-05 1.037943e-05 1.942587e-06 1.037943e-05 3.394065e-05 7.246805e-05 1.359970e-04 2.421196e-04 3.992541e-04 6.052255e-04 8.893261e-04 1.340096e-03 2.048433e-03 3.041388e-03 4.389568e-03 6.431656e-03 9.726687e-03 1.470455e-02 2.172905e-02 3.210730e-02 4.880829e-02 7.526954e-02 1.136311e-01 1.663814e-01 2.404732e-01 3.435449e-01 4.681556e-01 5.828676e-01 6.544536e-01 6.765132e-01
  4.575194e-01 4.385455e-01 3.858584e-01 3.132624e-01 2.394980e-01 1.769076e-01 1.274621e-01 8.882324e-02 5.983918e-02 3.995322e-02 2.717913e-02 1.873040e-02 1.271473e-02 8.481726e-03 5.736460e-03 3.990129e-03 2.764581e-03 1.852817e-03 1.226233e-03 8.303369e-04 5.650253e-04 3.658341e-04 2.218633e-04 1.292472e-04 7.078881e-05 3.201275e-05 9.220421e-06 1.877754e-06 9.220421e-06 3.201275e-05 7.078881e-05 1.292472e-04 2.218633e-04 3.658341e-04 5.650253e-04 8.303369e-04 1.226233e-03 1.852817e-03 2.764581e-03 3.990129e-03 5.736460e-03 8.481726e-03 1.271473e-02 1.873040e-02 2.717913e-02 3.995322e-02 5.983918e-02 8.882324e-02 1.274621e-01 1.769076e-01 2.394980e-01 3.132624e-01 3.858584e-01 4.385455e-01 4.575194e-01
  2.925459e-01 2.815805e-01 2.517820e-01 2.111126e-01 1.683368e-01 1.289185e-01 9.484210e-02 6.706617e-02 4.633699e-02 3.213002e-02 2.255445e-02 1.570546e-02 1.067506e-02 7.221232e-03 5.014251e-03 3.541856e-03 2.444847e-03 1.637678e-03 1.108068e-03 7.701666e-04 5.230552e-04 3.314911e-04 2.013607e-04 1.216168e-04 6.757567e-05 2.888794e-05 7.761016e-06 1.852700e-06 7.761016e-06 2.888794e-05 6.757567e-05 1.216168e-04 2.013607e-04 3.314911e-04 5.230552e-04 7.701666e-04 1.108068e-03 1.637678e-03 2.444847e-03 3.541856e-03 5.014251e-03 7.221232e-03 1.067506e-02 1.570546e-02 2.255445e-02 3.213002e-02 4.633699e-02 6.706617e-02 9.484210e-02 1.289185e-01 1.683368e-01 2.111126e-01 2.517820e-01 2.815805e-01 2.925459e-01
  1.921361e-01 1.860575e-01 1.692221e-01 1.452410e-01 1.183557e-01 9.198717e-02 6.850561e-02 4.949250e-02 3.543887e-02 2.551639e-02 1.828952e-02 1.278269e-02 8.744449e-03 6.055373e-03 4.321406e-03 3.079701e-03 2.114188e-03 1.426110e-03 9.936350e-04 7.064836e-04 4.752475e-04 2.945734e-04 1.804685e-04 1.133768e-04 6.356847e-05 2.575189e-05 6.960594e-06 2.528464e-06 6.960594e-06 2.575189e-05 6.356847e-05 1.133768e-04 1.804685e-04 2.945734e-04 4.752475e-04 7.064836e-04 9.936350e-04 1.426110e-03 2.114188e-03 3.079701e-03 4.321406e-03 6.055373e-03 8.744449e-03 1.278269e-02 1.828952e-02 2.551639e-02 3.543887e-02 4.949250e-02 6.850561e-02 9.198717e-02 1.183557e-01 1.452410e-01 1.692221e-01 1.860575e-01 1.921361e-01
  1.289971e-01 1.252441e-01 1.146695e-01 9.920362e-02 8.149043e-02 6.405681e-02 4.872647e-02 3.640480e-02 2.705353e-02 1.997211e-02 1.442769e-02 1.012802e-02 7.059299e-03 5.045201e-03 3.681300e-03 2.626428e-03 1.797215e-03 1.230892e-03 8.814142e-04 6.317228e-04 4.167235e-04 2.543041e-04 1.600090e-04 1.058100e-04 6.037467e-05 2.401641e-05 7.497809e-06 4.253088e-06 7.497809e-06 2.401641e-05 6.037467e-05 1.058100e-04 1.600090e-04 2.543041e-04 4.167235e-04 6.317228e-04 8.814142e-04 1.230892e-03 1.797215e-03 2.626428e-03 3.681300e-03 5.045201e-03 7.059299e-03 1.012802e-02 1.442769e-02 1.997211e-02 2.705353e-02 3.640480e-02 4.872647e-02 6.405681e-02 8.149043e-02 9.920362e-02 1.146695e-01 1.252441e-01 1.289971e-01
  8.520585e-02 8.281934e-02 7.609624e-02 6.630450e-02 5.521285e-02 4.443489e-02 3.493830e-02 2.702187e-02 2.056209e-02 1.530251e-02 1.108851e-02 7.903005e-03 5.683635e-03 4.184269e-03 3.080845e-03 2.186726e-03 1.502419e-03 1.052250e-03 7.674453e-04 5.456543e-04 3.524568e-04 2.159273e-04 1.426667e-04 9.957132e-05 5.791704e-05 2.325876e-05 8.425715e-06 5.908321e-06 8.425715e-06 2.325876e-05 5.791704e-05 9.957132e-05 1.426667e-04 2.159273e-04 3.524568e-04 5.456543e-04 7.674453e-04 1.052250e-03 1.502419e-03 2.186726e-03 3.080845e-03 4.184269e-03 5.683635e-03 7.903005e-03 1.108851e-02 1.530251e-02 2.056209e-02 2.702187e-02 3.493830e-02 4.443489e-02 5.521285e-02 6.630450e-02 7.609624e-02 8.281934e-02 8.520585e-02
  5.555507e-02 5.414071e-02 5.016643e-02 4.439708e-02 3.785056e-02 3.137076e-02 2.538105e-02 2.000787e-02 1.532295e-02 1.142726e-02 8.387428e-03 6.160912e-03 4.583258e-03 3.426589e-03 2.509304e-03 1.773734e-03 1.239275e-03 8.919922e-04 6.558773e-04 4.594516e-04 2.945914e-04 1.860115e-04 1.294718e-04 9.262575e-05 5.372378e-05 2.173086e-05 8.368950e-06 6.184499e-06 8.368950e-06 2.173086e-05 5.372378e-05 9.262575e-05 1.294718e-04 1.860115e-04 2.945914e-04 4.594516e-04 6.558773e-04 8.919922e-04 1.239275e-03 1.773734e-03 2.509304e-03 3.426589e-03 4.583258e-03 6.160912e-03 8.387428e-03 1.142726e-02 1.532295e-02 2.000787e-02 2.538105e-02 3.137076e-02 3.785056e-02 4.439708e-02 5.016643e-02 5.414071e-02 5.555507e-02
  3.696143e-02 3.614643e-02 3.384422e-02 3.045087e-02 2.647522e-02 2.233178e-02 1.826283e-02 1.444754e-02 1.109685e-02 8.385391e-03 6.336945e-03 4.823686e-03 3.667530e-03 2.737796e-03 1.986208e-03 1.415858e-03 1.020458e-03 7.543038e-04 5.541473e-04 3.839315e-04 2.498019e-04 1.648648e-04 1.174032e-04 8.175372e-05 4.597003e-05 1.891198e-05 7.677041e-06 5.731285e-06 7.677041e-06 1.891198e-05 4.597003e-05 8.175372e-05 1.174032e-04 1.648648e-04 2.498019e-04 3.839315e-04 5.541473e-04 7.543038e-04 1.020458e-03 1.415858e-03 1.986208e-03 2.737796e-03 3.667530e-03 4.823686e-03 6.336945e-03 8.385391e-03 1.109685e-02 1.444754e-02 1.826283e-02 2.233178e-02 2.647522e-02 3.045087e-02 3.384422e-02 3.614643e-02 3.696143e-02
  2.511708e-02 2.461077e-02 2.317354e-02 2.101960e-02 1.841443e-02 1.559918e-02 1.278150e-02 1.016636e-02 7.936791e-03 6.175482e-03 4.826975e-03 3.759349e-03 2.867771e-03 2.124371e-03 1.545332e-03 1.131184e-03 8.450550e-04 6.344415e-04 4.620826e-04 3.196175e-04 2.143955e-04 1.465178e-04 1.024095e-04 6.695903e-05 3.665740e-05 1.644606e-05 7.866868e-06 6.162382e-06 7.866868e-06 1.644606e-05 3.665740e-05 6.695903e-05 1.024095e-04 1.465178e-04 2.143955e-04 3.196175e-04 4.620826e-04 6.344415e-04 8.450550e-04 1.131184e-03 1.545332e-03 2.124371e-03 2.867771e-03 3.759349e-03 4.826975e-03 6.175482e-03 7.936791e-03 1.016636e-02 1.278150e-02 1.559918e-02 1.841443e-02 2.101960e-02 2.317354e-02 2.461077e-02 2.511708e-02
  1.686289e-02 1.652895e-02 1.559044e-02 1.419475e-02 1.250144e-02 1.066129e-02 8.833096e-03 7.169969e-03 5.766434e-03 4.624855e-03 3.681665e-03 2.872166e-03 2.177662e-03 1.617129e-03 1.202453e-03 9.104701e-04 6.956521e-04 5.211100e-04 3.752147e-04 2.620099e-04 1.819846e-04 1.264582e-04 8.500353e-05 5.261450e-05 2.960553e-05 1.592309e-05 9.515336e-06 7.845692e-06 9.515336e-06 1.592309e-05 2.960553e-05 5.261450e-05 8.500353e-05 1.264582e-04 1.819846e-04 2.620099e-04 3.752147e-04 5.211100e-04 6.956521e-04 9.104701e-04 1.202453e-03 1.617129e-03 2.177662e-03 2.872166e-03 3.681665e-03 4.624855e-03 5.766434e-03 7.169969e-03 8.833096e-03 1.066129e-02 1.250144e-02 1.419475e-02 1.559044e-02 1.652895e-02 1.686289e-02
  1.109760e-02 1.088499e-02 1.030104e-02 9.455140e-03 8.437432e-03 7.321515e-03 6.200290e-03 5.166379e-03 4.260007e-03 3.464968e-03 2.756036e-03 2.135391e-03 1.624022e-03 1.232202e-03 9.450481e-04 7.304685e-04 5.577744e-04 4.126248e-04 2.963479e-04 2.114907e-04 1.516449e-04 1.061277e-04 6.951382e-05 4.267179e-05 2.609821e-05 1.663437e-05 1.105777e-05 9.014238e-06 1.105777e-05 1.663437e-05 2.609821e-05 4.267179e-05 6.951382e-05 1.061277e-04 1.516449e-04 2.114907e-04 2.963479e-04 4.126248e-04 5.577744e-04 7.304685e-04 9.450481e-04 1.232202e-03 1.624022e-03 2.135391e-03 2.756036e-03 3.464968e-03 4.260007e-03 5.166379e-03 6.200290e-03 7.321515e-03 8.437432e-03 9.455140e-03 1.030104e-02 1.088499e-02 1.109760e-02
  7.385095e-03 7.254278e-03 6.903170e-03 6.405974e-03 5.803508e-03 5.119402e-03 4.405101e-03 3.722688e-03 3.097584e-03 2.522795e-03 2.002143e-03 1.560772e-03 1.214764e-03 9.518568e-04 7.454565e-04 5.754999e-04 4.341320e-04 3.204679e-04 2.342896e-04 1.719030e-04 1.256551e-04 8.834744e-05 5.813940e-05 3.689109e-05 2.411510e-05 1.607507e-05 1.023056e-05 7.771133e-06 1.023056e-05 1.607507e-05 2.411510e-05 3.689109e-05 5.813940e-05 8.834744e-05 1.256551e-04 1.719030e-04 2.342896e-04 3.204679e-04 4.341320e-04 5.754999e-04 7.454565e-04 9.518568e-04 1.214764e-03 1.560772e-03 2.002143e-03 2.522795e-03 3.097584e-03 3.722688e-03 4.405101e-03 5.119402e-03 5.803508e-03 6.405974e-03 6.903170e-03 7.254278e-03 7.385095e-03
  5.031044e-03 4.948032e-03 4.726483e-03 4.411799e-03 4.020600e-03 3.561616e-03 3.073600e-03 2.605818e-03 2.177656e-03 1.785063e-03 1.435195e-03 1.146663e-03 9.213123e-04 7.386424e-04 5.796972e-04 4.429944e-04 3.344156e-04 2.529359e-04 1.910502e-04 1.423256e-04 1.035209e-04 7.279502e-05 4.915466e-05 3.231047e-05 2.108986e-05 1.315829e-05 7.491796e-06 5.272780e-06 7.491796e-06 1.315829e-05 2.108986e-05 3.231047e-05 4.915466e-05 7.279502e-05 1.035209e-04 1.423256e-04 1.910502e-04 2.529359e-04 3.344156e-04 4.429944e-04 5.796972e-04 7.386424e-04 9.213123e-04 1.146663e-03 1.435195e-03 1.785063e-03 2.177656e-03 2.605818e-03 3.073600e-03 3.561616e-03 4.020600e-03 4.411799e-03 4.726483e-03 4.948032e-03 5.031044e-03
  3.387583e-03 3.335742e-03 3.194874e-03 2.988721e-03 2.726091e-03 2.417784e-03 2.096519e-03 1.795746e-03 1.523204e-03 1.271699e-03 1.045373e-03 8.557185e-04 6.999529e-04 5.628366e-04 4.383444e-04 3.352097e-04 2.596488e-04 2.045083e-04 1.580784e-04 1.164378e-04 8.248906e-05 5.787642e-05 4.036761e-05 2.705152e-05 1.689419e-05 9.693545e-06 5.329681e-06 3.867136e-06 5.329681e-06 9.693545e-06 1.689419e-05 2.705152e-05 4.036761e-05 5.787642e-05 8.248906e-05 1.164378e-04 1.580784e-04 2.045083e-04 2.596488e-04 3.352097e-04 4.383444e-04 5.628366e-04 6.999529e-04 8.557185e-04 1.045373e-03 1.271699e-03 1.523204e-03 1.795746e-03 2.096519e-03 2.417784e-03 2.726091e-03 2.988721e-03 3.194874e-03 3.335742e-03 3.387583e-03
  2.202609e-03 2.175216e-03 2.097378e-03 1.976375e-03 1.817177e-03 1.631972e-03 1.442965e-03 1.264748e-03 1.094634e-03 9.274076e-04 7.708435e-04 6.358734e-04 5.205857e-04 4.162520e-04 3.237435e-04 2.519836e-04 2.021743e-04 1.636220e-04 1.260074e-04 9.019803e-05 6.251294e-05 4.445065e-05 3.215590e-05 2.182613e-05 1.324225e-05 7.592352e-06 4.802228e-06 4.019876e-06 4.802228e-06 7.592352e-06 1.324225e-05 2.182613e-05 3.215590e-05 4.445065e-05 6.251294e-05 9.019803e-05 1.260074e-04 1.636220e-04 2.021743e-04 2.519836e-04 3.237435e-04 4.162520e-04 5.205857e-04 6.358734e-04 7.708435e-04 9.274076e-04 1.094634e-03 1.264748e-03 1.442965e-03 1.631972e-03 1.817177e-03 1.976375e-03 2.097378e-03 2.175216e-03 2.202609e-03
  1.431758e-03 1.420173e-03 1.383383e-03 1.318385e-03 1.227513e-03 1.121739e-03 1.012944e-03 9.025865e-04 7.852446e-04 6.635465e-04 5.509545e-04 4.565749e-04 3.761841e-04 3.026490e-04 2.382748e-04 1.896041e-04 1.550920e-04 1.253751e-04 9.462492e-05 6.667027e-05 4.696735e-05 3.486571e-05 2.599643e-05 1.774075e-05 1.091628e-05 6.784575e-06 5.002911e-06 4.564979e-06 5.002911e-06 6.784575e-06 1.091628e-05 1.774075e-05 2.599643e-05 3.486571e-05 4.696735e-05 6.667027e-05 9.462492e-05 1.253751e-04 1.550920e-04 1.896041e-04 2.382748e-04 3.026490e-04 3.761841e-04 4.565749e-04 5.509545e-04 6.635465e-04 7.852446e-04 9.025865e-04 1.012944e-03 1.121739e-03 1.227513e-03 1.318385e-03 1.383383e-03 1.420173e-03 1.431758e-03
  9.670476e-04 9.617034e-04 9.413183e-04 8.995859e-04 8.388868e-04 7.692915e-04 6.967966e-04 6.182871e-04 5.316918e-04 4.459967e-04 3.740415e-04 3.181635e-04 2.694730e-04 2.211165e-04 1.767474e-04 1.423488e-04 1.164011e-04 9.274671e-05 6.939664e-05 5.014091e-05 3.751445e-05 2.920429e-05 2.171511e-05 1.450434e-05 9.121728e-06 6.055393e-06 4.574399e-06 4.115516e-06 4.574399e-06 6.055393e-06 9.121728e-06 1.450434e-05 2.171511e-05 2.920429e-05 3.751445e-05 5.014091e-05 6.939664e-05 9.274671e-05 1.164011e-04 1.423488e-04 1.767474e-04 2.211165e-04 2.694730e-04 3.181635e-04 3.740415e-04 4.459967e-04 5.316918e-04 6.182871e-04 6.967966e-04 7.692915e-04 8.388868e-04 8.995859e-04 9.413183e-04 9.617034e-04 9.670476e-04
  6.537312e-04 6.496850e-04 6.337674e-04 6.013160e-04 5.560668e-04 5.067437e-04 4.563930e-04 4.018264e-04 3.441284e-04 2.925505e-04 2.543301e-04 2.256692e-04 1.963098e-04 1.623698e-04 1.301029e-04 1.053328e-04 8.631340e-05 6.866352e-05 5.220394e-05 3.976779e-05 3.163616e-05 2.491775e-05 1.764534e-05 1.110373e-05 6.933994e-06 4.723672e-06 3.403408e-06 2.860820e-06 3.403408e-06 4.723672e-06 6.933994e-06 1.110373e-05 1.764534e-05 2.491775e-05 3.163616e-05 3.976779e-05 5.220394e-05 6.866352e-05 8.631340e-05 1.053328e-04 1.301029e-04 1.623698e-04 1.963098e-04 2.256692e-04 2.543301e-04 2.925505e-04 3.441284e-04 4.018264e-04 4.563930e-04 5.067437e-04 5.560668e-04 6.013160e-04 6.337674e-04 6.496850e-04 6.537312e-04
  4.115653e-04 4.086606e-04 3.978519e-04 3.772729e-04 3.504692e-04 3.227732e-04 2.947044e-04 2.636562e-04 2.314681e-04 2.044183e-04 1.847330e-04 1.667545e-04 1.436725e-04 1.167060e-04 9.322682e-05 7.676256e-05 6.418245e-05 5.173427e-05 4.007101e-05 3.157848e-05 2.574061e-05 1.985985e-05 1.311724e-05 7.613730e-06 4.658221e-06 3.294874e-06 2.369139e-06 1.923393e-06 2.369139e-06 3.294874e-06 4.658221e-06 7.613730e-06 1.311724e-05 1.985985e-05 2.574061e-05 3.157848e-05 4.007101e-05 5.173427e-05 6.418245e-05 7.676256e-05 9.322682e-05 1.167060e-04 1.436725e-04 1.667545e-04 1.847330e-04 2.044183e-04 2.314681e-04 2.636562e-04 2.947044e-04 3.227732e-04 3.504692e-04 3.772729e-04 3.978519e-04 4.086606e-04 4.115653e-04
  2.413114e-04 2.399277e-04 2.351031e-04 2.266747e-04 2.165512e-04 2.062809e-04 1.946153e-04 1.798580e-04 1.637155e-04 1.493938e-04 1.363382e-04 1.204467e-04 1.003667e-04 8.059866e-05 6.610733e-05 5.669166e-05 4.835591e-05 3.878616e-05 2.977616e-05 2.348642e-05 1.914493e-05 1.454058e-05 9.290762e-06 5.196605e-06 3.188963e-06 2.392227e-06 1.849229e-06 1.569702e-06 1.849229e-06 2.392227e-06 3.188963e-06 5.196605e-06 9.290762e-06 1.454058e-05 1.914493e-05 2.348642e-05 2.977616e-05 3.878616e-05 4.835591e-05 5.669166e-05 6.610733e-05 8.059866e-05 1.003667e-04 1.204467e-04 1.363382e-04 1.493938e-04 1.637155e-04 1.798580e-04 1.946153e-04 2.062809e-04 2.165512e-04 2.266747e-04 2.351031e-04 2.399277e-04 2.413114e-04
  1.418512e-04 1.411335e-04 1.391654e-04 1.365320e-04 1.336975e-04 1.300342e-04 1.242393e-04 1.162869e-04 1.078256e-04 9.970972e-05 9.035468e-05 7.819477e-05 6.508014e-05 5.481475e-05 4.855228e-05 4.357105e-05 3.670960e-05 2.827574e-05 2.115171e-05 1.672460e-05 1.376526e-05 1.053242e-05 6.924670e-06 4.125234e-06 2.652023e-06 1.980895e-06 1.535262e-06 1.326416e-06 1.535262e-06 1.980895e-06 2.652023e-06 4.125234e-06 6.924670e-06 1.053242e-05 1.376526e-05 1.672460e-05 2.115171e-05 2.827574e-05 3.670960e-05 4.357105e-05 4.855228e-05 5.481475e-05 6.508014e-05 7.819477e-05 9.035468e-05 9.970972e-05 1.078256e-04 1.162869e-04 1.242393e-04 1.300342e-04 1.336975e-04 1.365320e-04 1.391654e-04 1.411335e-04 1.418512e-04
  8.304502e-05 8.236596e-05 8.088188e-05 7.939397e-05 7.760366e-05 7.437946e-05 6.961421e-05 6.491893e-05 6.156602e-05 5.841454e-05 5.336059e-05 4.669118e-05 4.118551e-05 3.865846e-05 3.744621e-05 3.394338e-05 2.717090e-05 2.004420e-05 1.527692e-05 1.273454e-05 1.072197e-05 8.167440e-06 5.525353e-06 3.613204e-06 2.478940e-06 1.704296e-06 1.075985e-06 8.021766e-07 1.075985e-06 1.704296e-06 2.478940e-06 3.613204e-06 5.525353e-06 8.167440e-06 1.072197e-05 1.273454e-05 1.527692e-05 2.004420e-05 2.717090e-05 3.394338e-05 3.744621e-05 3.865846e-05 4.118551e-05 4.669118e-05 5.336059e-05 5.841454e-05 6.156602e-05 6.491893e-05 6.961421e-05 7.437946e-05 7.760366e-05 7.939397e-05 8.088188e-05 8.236596e-05 8.304502e-05
  3.931977e-05 3.896871e-05 3.842524e-05 3.829591e-05 3.793192e-05 3.632927e-05 3.421998e-05 3.361600e-05 3.503106e-05 3.597686e-05 3.392810e-05 3.024496e-05 2.831645e-05 2.901179e-05 2.932898e-05 2.580774e-05 1.947714e-05 1.429703e-05 1.194096e-05 1.099009e-05 9.358874e-06 6.750731e-06 4.420104e-06 3.024659e-06 2.183054e-06 1.374559e-06 5.915792e-07 2.500669e-07 5.915792e-07 1.374559e-06 2.183054e-06 3.024659e-06 4.420104e-06 6.750731e-06 9.358874e-06 1.099009e-05 1.194096e-05 1.429703e-05 1.947714e-05 2.580774e-05 2.932898e-05 2.901179e-05 2.831645e-05 3.024496e-05 3.392810e-05 3.597686e-05 3.503106e-05 3.361600e-05 3.421998e-05 3.632927e-05 3.793192e-05 3.829591e-05 3.842524e-05 3.896871e-05 3.931977e-05
  1.054098e-05 1.067706e-05 1.145798e-05 1.323068e-05 1.515874e-05 1.623216e-05 1.719384e-05 1.974445e-05 2.392328e-05 2.686987e-05 2.600365e-05 2.309018e-05 2.183987e-05 2.303280e-05 2.356694e-05 2.037169e-05 1.503565e-05 1.130026e-05 1.021317e-05 1.000070e-05 8.515506e-06 5.856473e-06 3.648615e-06 2.487029e-06 1.828918e-06 1.113421e-06 3.856906e-07 7.116550e-08 3.856906e-07 1.113421e-06 1.828918e-06 2.487029e-06 3.648615e-06 5.856473e-06 8.515506e-06 1.000070e-05 1.021317e-05 1.130026e-05 1.503565e-05 2.037169e-05 2.356694e-05 2.303280e-05 2.183987e-05 2.309018e-05 2.600365e-05 2.686987e-05 2.392328e-05 1.974445e-05 1.719384e-05 1.623216e-05 1.515874e-05 1.323068e-05 1.145798e-05 1.067706e-05 1.054098e-05
  2.817770e-06 3.013892e-06 3.993002e-06 6.140933e-06 8.735589e-06 1.074116e-05 1.256528e-05 1.561088e-05 1.987082e-05 2.281415e-05 2.220627e-05 1.960258e-05 1.843453e-05 1.974526e-05 2.103576e-05 1.915667e-05 1.472523e-05 1.105885e-05 9.570592e-06 9.012642e-06 7.686241e-06 5.479209e-06 3.520511e-06 2.367988e-06 1.682110e-06 1.038961e-06 4.499610e-07 2.031928e-07 4.499610e-07 1.038961e-06 1.682110e-06 2.367988e-06 3.520511e-06 5.479209e-06 7.686241e-06 9.012642e-06 9.570592e-06 1.105885e-05 1.472523e-05 1.915667e-05 2.103576e-05 1.974526e-05 1.843453e-05 1.960258e-05 2.220627e-05 2.281415e-05 1.987082e-05 1.561088e-05 1.256528e-05 1.074116e-05 8.735589e-06 6.140933e-06 3.993002e-06 3.013892e-06 2.817770e-06
  9.845947e-06 9.991914e-06 1.074942e-05 1.253072e-05 1.501600e-05 1.731066e-05 1.909962e-05 2.109495e-05 2.364355e-05 2.543424e-05 2.474317e-05 2.203837e-05 1.992202e-05 2.012107e-05 2.146984e-05 2.101761e-05 1.759976e-05 1.328239e-05 1.029051e-05 8.703984e-06 7.380949e-06 5.630212e-06 3.816024e-06 2.491969e-06 1.671178e-06 1.079085e-06 6.001366e-07 3.959345e-07 6.001366e-07 1.079085e-06 1.671178e-06 2.491969e-06 3.816024e-06 5.630212e-06 7.380949e-06 8.703984e-06 1.029051e-05 1.328239e-05 1.759976e-05 2.101761e-05 2.146984e-05 2.012107e-05 1.992202e-05 2.203837e-05 2.474317e-05 2.543424e-05 2.364355e-05 2.109495e-05 1.909962e-05 1.731066e-05 1.501600e-05 1.253072e-05 1.074942e-05 9.991914e-06 9.845947e-06
  2.830740e-05 2.857657e-05 2.932586e-05 3.065550e-05 3.281595e-05 3.550515e-05 3.772413e-05 3.890694e-05 3.954126e-05 3.983797e-05 3.857926e-05 3.467495e-05 2.958179e-05 2.610645e-05 2.503092e-05 2.437826e-05 2.175397e-05 1.723901e-05 1.299509e-05 1.030314e-05 8.575600e-06 6.678287e-06 4.459875e-06 2.673593e-06 1.699358e-06 1.184809e-06 7.616118e-07 5.554995e-07 7.616118e-07 1.184809e-06 1.699358e-06 2.673593e-06 4.459875e-06 6.678287e-06 8.575600e-06 1.030314e-05 1.299509e-05 1.723901e-05 2.175397e-05 2.437826e-05 2.503092e-05 2.610645e-05 2.958179e-05 3.467495e-05 3.857926e-05 3.983797e-05 3.954126e-05 3.890694e-05 3.772413e-05 3.550515e-05 3.281595e-05 3.065550e-05 2.932586e-05 2.857657e-05 2.830740e-05
  7.006486e-05 7.034819e-05 7.040413e-05 6.944756e-05 6.828204e-05 6.792268e-05 6.755008e-05 6.552907e-05 6.230591e-05 5.979173e-05 5.796633e-05 5.426022e-05 4.728191e-05 3.938430e-05 3.362848e-05 3.019334e-05 2.684730e-05 2.219394e-05 1.741726e-05 1.406310e-05 1.180220e-05 9.163374e-06 5.903355e-06 3.324586e-06 2.051402e-06 1.490202e-06 1.033081e-06 7.871806e-07 1.033081e-06 1.490202e-06 2.051402e-06 3.324586e-06 5.903355e-06 9.163374e-06 1.180220e-05 1.406310e-05 1.741726e-05 2.219394e-05 2.684730e-05 3.019334e-05 3.362848e-05 3.938430e-05 4.728191e-05 5.426022e-05 5.796633e-05 5.979173e-05 6.230591e-05 6.552907e-05 6.755008e-05 6.792268e-05 6.828204e-05 6.944756e-05 7.040413e-05 7.034819e-05 7.006486e-05
  1.485147e-04 1.485942e-04 1.469936e-04 1.413295e-04 1.327180e-04 1.241139e-04 1.157607e-04 1.054319e-04 9.349245e-05 8.389025e-05 7.908737e-05 7.626430e-05 7.016552e-05 5.981778e-05 4.916224e-05 4.112344e-05 3.482350e-05 2.852082e-05 2.271028e-05 1.877120e-05 1.618859e-05 1.295773e-05 8.647101e-06 5.015341e-06 3.056111e-06 2.189670e-06 1.628400e-06 1.342445e-06 1.628400e-06 2.189670e-06 3.056111e-06 5.015341e-06 8.647101e-06 1.295773e-05 1.618859e-05 1.877120e-05 2.271028e-05 2.852082e-05 3.482350e-05 4.112344e-05 4.916224e-05 5.981778e-05 7.016552e-05 7.626430e-05 7.908737e-05 8.389025e-05 9.349245e-05 1.054319e-04 1.157607e-04 1.241139e-04 1.327180e-04 1.413295e-04 1.469936e-04 1.485942e-04 1.485147e-04
  2.594364e-04 2.594315e-04 2.568514e-04 2.478014e-04 2.329018e-04 2.162244e-04 1.990123e-04 1.784475e-04 1.539731e-04 1.310552e-04 1.156841e-04 1.072066e-04 9.887967e-05 8.610102e-05 7.123330e-05 5.837074e-05 4.793510e-05 3.833310e-05 2.971407e-05 2.362368e-05 1.999918e-05 1.663757e-05 1.206415e-05 7.518875e-06 4.612255e-06 3.269227e-06 2.645907e-06 2.407778e-06 2.645907e-06 3.269227e-06 4.612255e-06 7.518875e-06 1.206415e-05 1.663757e-05 1.999918e-05 2.362368e-05 2.971407e-05 3.833310e-05 4.793510e-05 5.837074e-05 7.123330e-05 8.610102e-05 9.887967e-05 1.072066e-04 1.156841e-04 1.310552e-04 1.539731e-04 1.784475e-04 1.990123e-04 2.162244e-04 2.329018e-04 2.478014e-04 2.568514e-04 2.594315e-04 2.594364e-04
  4.062160e-04 4.053573e-04 4.009025e-04 3.895863e-04 3.711857e-04 3.491621e-04 3.255855e-04 2.974441e-04 2.614859e-04 2.217620e-04 1.872996e-04 1.621143e-04 1.416902e-04 1.203734e-04 9.890057e-05 8.115928e-05 6.737871e-05 5.446969e-05 4.129403e-05 3.036613e-05 2.357981e-05 1.936244e-05 1.498642e-05 1.010508e-05 6.328758e-06 4.378268e-06 3.701659e-06 3.574143e-06 3.701659e-06 4.378268e-06 6.328758e-06 1.010508e-05 1.498642e-05 1.936244e-05 2.357981e-05 3.036613e-05 4.129403e-05 5.446969e-05 6.737871e-05 8.115928e-05 9.890057e-05 1.203734e-04 1.416902e-04 1.621143e-04 1.872996e-04 2.217620e-04 2.614859e-04 2.974441e-04 3.255855e-04 3.491621e-04 3.711857e-04 3.895863e-04 4.009025e-04 4.053573e-04 4.062160e-04
  6.469162e-04 6.416722e-04 6.268771e-04 6.036652e-04 5.719824e-04 5.340439e-04 4.945558e-04 4.539211e-04 4.070284e-04 3.523661e-04 2.973157e-04 2.496151e-04 2.087554e-04 1.705237e-04 1.361280e-04 1.103653e-04 9.299061e-05 7.760751e-05 5.964585e-05 4.211159e-05 2.984844e-05 2.290728e-05 1.801387e-05 1.289555e-05 8.204475e-06 5.340444e-06 4.243855e-06 4.026174e-06 4.243855e-06 5.340444e-06 8.204475e-06 1.289555e-05 1.801387e-05 2.290728e-05 2.984844e-05 4.211159e-05 5.964585e-05 7.760751e-05 9.299061e-05 1.103653e-04 1.361280e-04 1.705237e-04 2.087554e-04 2.496151e-04 2.973157e-04 3.523661e-04 4.070284e-04 4.539211e-04 4.945558e-04 5.340439e-04 5.719824e-04 6.036652e-04 6.268771e-04 6.416722e-04 6.469162e-04
  1.073006e-03 1.058200e-03 1.019829e-03 9.670397e-04 9.004408e-04 8.200959e-04 7.357524e-04 6.573947e-04 5.837725e-04 5.085482e-04 4.334700e-04 3.652642e-04 3.040685e-04 2.454366e-04 1.915548e-04 1.505018e-04 1.242322e-04 1.046312e-04 8.285185e-05 5.953606e-05 4.102355e-05 2.969217e-05 2.273625e-05 1.664489e-05 1.087087e-05 6.738795e-06 4.633300e-06 4.029363e-06 4.633300e-06 6.738795e-06 1.087087e-05 1.664489e-05 2.273625e-05 2.969217e-05 4.102355e-05 5.953606e-05 8.285185e-05 1.046312e-04 1.242322e-04 1.505018e-04 1.915548e-04 2.454366e-04 3.040685e-04 3.652642e-04 4.334700e-04 5.085482e-04 5.837725e-04 6.573947e-04 7.357524e-04 8.200959e-04 9.004408e-04 9.670397e-04 1.019829e-03 1.058200e-03 1.073006e-03
  1.729443e-03 1.702380e-03 1.633770e-03 1.542226e-03 1.427551e-03 1.284556e-03 1.127020e-03 9.774111e-04 8.435148e-04 7.197973e-04 6.062865e-04 5.091563e-04 4.262718e-04 3.476890e-04 2.715286e-04 2.077795e-04 1.633568e-04 1.328386e-04 1.059416e-04 7.914530e-05 5.618339e-05 4.006507e-05 2.942467e-05 2.139831e-05 1.471231e-05 9.466644e-06 6.112393e-06 4.972228e-06 6.112393e-06 9.466644e-06 1.471231e-05 2.139831e-05 2.942467e-05 4.006507e-05 5.618339e-05 7.914530e-05 1.059416e-04 1.328386e-04 1.633568e-04 2.077795e-04 2.715286e-04 3.476890e-04 4.262718e-04 5.091563e-04 6.062865e-04 7.197973e-04 8.435148e-04 9.774111e-04 1.127020e-03 1.284556e-03 1.427551e-03 1.542226e-03 1.633770e-03 1.702380e-03 1.729443e-03
  2.632398e-03 2.592434e-03 2.491428e-03 2.357388e-03 2.190415e-03 1.979770e-03 1.739142e-03 1.498373e-03 1.272331e-03 1.059868e-03 8.668243e-04 7.067862e-04 5.809955e-04 4.746141e-04 3.755385e-04 2.870056e-04 2.174671e-04 1.671999e-04 1.294576e-04 9.860039e-05 7.293324e-05 5.243583e-05 3.696140e-05 2.612979e-05 1.885160e-05 1.346662e-05 9.431357e-06 7.810537e-06 9.431357e-06 1.346662e-05 1.885160e-05 2.612979e-05 3.696140e-05 5.243583e-05 7.293324e-05 9.860039e-05 1.294576e-04 1.671999e-04 2.174671e-04 2.870056e-04 3.755385e-04 4.746141e-04 5.809955e-04 7.067862e-04 8.668243e-04 1.059868e-03 1.272331e-03 1.498373e-03 1.739142e-03 1.979770e-03 2.190415e-03 2.357388e-03 2.491428e-03 2.592434e-03 2.632398e-03
  3.983278e-03 3.922077e-03 3.762250e-03 3.542432e-03 3.273508e-03 2.953059e-03 2.600301e-03 2.247642e-03 1.908662e-03 1.579938e-03 1.269979e-03 1.002976e-03 7.934276e-04 6.326564e-04 5.018979e-04 3.896380e-04 2.946113e-04 2.188698e-04 1.624073e-04 1.218802e-04 9.148168e-05 6.617170e-05 4.516564e-05 3.044081e-05 2.193490e-05 1.693996e-05 1.327822e-05 1.164586e-05 1.327822e-05 1.693996e-05 2.193490e-05 3.044081e-05 4.516564e-05 6.617170e-05 9.148168e-05 1.218802e-04 1.624073e-04 2.188698e-04 2.946113e-04 3.896380e-04 5.018979e-04 6.326564e-04 7.934276e-04 1.002976e-03 1.269979e-03 1.579938e-03 1.908662e-03 2.247642e-03 2.600301e-03 2.953059e-03 3.273508e-03 3.542432e-03 3.762250e-03 3.922077e-03 3.983278e-03
  6.284686e-03 6.181652e-03 5.897949e-03 5.482731e-03 4.972755e-03 4.399535e-03 3.810283e-03 3.253169e-03 2.745627e-03 2.275674e-03 1.834502e-03 1.436159e-03 1.104132e-03 8.485183e-04 6.592491e-04 5.147460e-04 3.955293e-04 2.940686e-04 2.131878e-04 1.550559e-04 1.143539e-04 8.255394e-05 5.589755e-05 3.613740e-05 2.435581e-05 1.823687e-05 1.485627e-05 1.357091e-05 1.485627e-05 1.823687e-05 2.435581e-05 3.613740e-05 5.589755e-05 8.255394e-05 1.143539e-04 1.550559e-04 2.131878e-04 2.940686e-04 3.955293e-04 5.147460e-04 6.592491e-04 8.485183e-04 1.104132e-03 1.436159e-03 1.834502e-03 2.275674e-03 2.745627e-03 3.253169e-03 3.810283e-03 4.399535e-03 4.972755e-03 5.482731e-03 5.897949e-03 6.181652e-03 6.284686e-03