6
Lattice="7.9999999630420415 0.0 0.0 0.0 7.9999999630420415 0.0 0.0 0.0 7.9999999630420415" Properties=species:S:1:pos:R:3:forces:R:3 energy=-831.3534652786254 free_energy=-831.3534652786254 pbc="T T T"
N        5.16688318       7.43525614       0.94117747      -0.11402354       0.14027347       0.02367935
N        4.43918375       6.55798459       0.06563804       0.65199037       0.21263512      -0.08526318
H        5.00537011       8.43439844       0.74948401       0.05835401      -0.29421313      -0.04175626
H        6.16996879       7.24835526       0.86487453      -0.22190960      -0.02658572      -0.15282534
H        4.30319793       6.94855540      -0.87503219      -0.02932549      -0.01990599       0.20318066
H        3.53865836       6.38756061       0.49155484      -0.34508575      -0.01220400       0.05298452
6
Lattice="7.9999999630420415 0.0 0.0 0.0 7.9999999630420415 0.0 0.0 0.0 7.9999999630420415" Properties=species:S:1:pos:R:3:forces:R:3 energy=-831.3578716180149 free_energy=-831.3578716180149 pbc="T T T"
N        4.59723353       7.61491701       0.86323519      -0.28503944       0.32198131      -0.25767750
N        5.00360467       6.60022564      -0.05360969       0.43380835      -0.30098311      -0.09866943
H        4.63535223       7.31448186       1.83638526      -0.06891945      -0.08799292       0.17119973
H        3.62682265       7.87271677       0.63624301       0.39238505      -0.12936891       0.14509609
H        4.75934456       5.65613511       0.27105699      -0.00881940       0.09045089      -0.01857108
H        6.03227689       6.62222256      -0.13247399      -0.46341512       0.10591274       0.05862218
6
Lattice="7.9999999630420415 0.0 0.0 0.0 7.9999999630420415 0.0 0.0 0.0 7.9999999630420415" Properties=species:S:1:pos:R:3:forces:R:3 energy=-831.3479198707075 free_energy=-831.3479198707075 pbc="T T T"
N        5.35046745       7.36692037       0.80967651       0.10739369      -0.22362375      -0.60491321
N        4.34565772       6.64064022       0.06525877       0.13501763       0.39255629      -0.08613401
H        4.94290363       8.00093033       1.48881465      -0.26547797       0.18093624       0.33849344
H        5.83045822       7.95921167       0.12551857       0.02856598      -0.12818672       0.11120921
H        3.47566055       7.17538637      -0.02510402       0.01722073      -0.08491402       0.04642024
H        4.13776510       5.78310233       0.56481362      -0.02271981      -0.13676778       0.19492433
6
Lattice="7.9999999630420415 0.0 0.0 0.0 7.9999999630420415 0.0 0.0 0.0 7.9999999630420415" Properties=species:S:1:pos:R:3:forces:R:3 energy=-831.3521006277247 free_energy=-831.3521006277247 pbc="T T T"
N        5.32900806       7.28474855       0.89222452      -0.08480244      -0.02006669      -0.18353589
N        4.22494634       6.73321399       0.14660464       0.30078179      -0.15532446      -0.21973059
H        5.68693240       8.13317281       0.44595700       0.01150903       0.07498237       0.04774976
H        6.08256233       6.59795812       0.85820704       0.01022425      -0.03536630       0.00866128
H        4.23499868       7.00501796      -0.84485248       0.10404380      -0.02679629       0.17062226
H        3.37748944       7.10966820       0.54747404      -0.34175669       0.16257137       0.17623318
6
Lattice="7.9999999630420415 0.0 0.0 0.0 7.9999999630420415 0.0 0.0 0.0 7.9999999630420415" Properties=species:S:1:pos:R:3:forces:R:3 energy=-831.3503093023247 free_energy=-831.3503093023247 pbc="T T T"
N        5.32460709       7.29495383       0.89903407      -0.47850030       0.14888204      -0.23758484
N        4.23179867       6.72088246       0.13992430       0.27278505      -0.06027874      -0.02725035
H        5.66413345       8.14976815       0.45327821      -0.00800564       0.14800118       0.03855343
H        6.08753972       6.63311880       0.85158350       0.29158804      -0.32745596       0.01870683
H        4.24547148       7.01039901      -0.84492962       0.04788345      -0.01181113       0.13297823
H        3.36767873       7.06741488       0.54594904      -0.12575034       0.10266261       0.07459670
6
Lattice="7.9999999630420415 0.0 0.0 0.0 7.9999999630420415 0.0 0.0 0.0 7.9999999630420415" Properties=species:S:1:pos:R:3:forces:R:3 energy=-831.3521783162255 free_energy=-831.3521783162255 pbc="T T T"
N        4.48896223       7.59218474       0.85295706      -0.36206763      -0.50305999       0.02931700
N        5.08742004       6.62466594      -0.04674466      -0.46221673      -0.08733935       0.19466696
H        4.61657414       7.30468506       1.83801333      -0.05842626       0.14169684      -0.29255374
H        3.47196336       7.55565569       0.66802450       0.49327437       0.08379791       0.13984950
H        5.09696824       5.66712480       0.34018577       0.08054418       0.39020887      -0.07536623
H        6.03948205       6.92613452      -0.21112059       0.30889182      -0.02530428       0.00408625
6
Lattice="7.9999999630420415 0.0 0.0 0.0 7.9999999630420415 0.0 0.0 0.0 7.9999999630420415" Properties=species:S:1:pos:R:3:forces:R:3 energy=-831.3476428588198 free_energy=-831.3476428588198 pbc="T T T"
N        4.19608658       7.32584699       0.77386267      -0.07332272      -0.20468012      -0.13208580
N        5.31242927       6.82162073       0.01222868       0.01135425      -0.56791529       0.46163386
H        4.44249154       7.47733325       1.75505031       0.04035655       0.03464947       0.06051863
H        3.46844976       6.59943941       0.76544181       0.23780082       0.20666322      -0.06240967
H        5.94943744       6.25026416       0.59979861      -0.27102847       0.33635377      -0.35071210
H        5.83967399       7.61224399      -0.34434041       0.05483932       0.19492921       0.02305534
6
Lattice="7.9999999630420415 0.0 0.0 0.0 7.9999999630420415 0.0 0.0 0.0 7.9999999630420415" Properties=species:S:1:pos:R:3:forces:R:3 energy=-831.3489634272787 free_energy=-831.3489634272787 pbc="T T T"
N        4.71996830       7.64947765       0.86897243       0.53259219      -0.48740917       0.14398049
N        4.91655771       6.55973385      -0.06316574       0.16772026       0.32790487       0.11851963
H        4.59325319       7.31292861       1.82572206       0.05915286      -0.06945630       0.12540350
H        3.87353207       8.13787344       0.63283095      -0.53182858       0.22230581      -0.39357959
H        4.41863358       5.70859158       0.21423146      -0.02204232       0.01595061       0.08501970
H        5.91856277       6.34768071      -0.03484152      -0.20559441      -0.00929582      -0.07934373
6
Lattice="7.9999999630420415 0.0 0.0 0.0 7.9999999630420415 0.0 0.0 0.0 7.9999999630420415" Properties=species:S:1:pos:R:3:forces:R:3 energy=-831.3512531291741 free_energy=-831.3512531291741 pbc="T T T"
N        5.27029117       7.44663369       0.81942562      -0.09613843      -0.15263765       0.56522206
N        4.43637490       6.60053520       0.03210594      -0.46909623       0.03737278      -0.17260407
H        4.76742430       7.88425395       1.59944786       0.06073871      -0.05560833      -0.06534484
H        5.64437156       8.18779781       0.24273934       0.03921395       0.19642740      -0.33848856
H        3.44554726       6.90070961       0.02807400       0.41071907      -0.04673674       0.00551913
H        4.45565808       5.66861123       0.44760765       0.05456267       0.02118255       0.00569628
6
Lattice="7.9999999630420415 0.0 0.0 0.0 7.9999999630420415 0.0 0.0 0.0 7.9999999630420415" Properties=species:S:1:pos:R:3:forces:R:3 energy=-831.3527698917108 free_energy=-831.3527698917108 pbc="T T T"
N        5.17329287       7.42788820       0.93828952       0.33129975       0.09573837       0.05807762
N        4.42944993       6.56476348       0.06810514       0.36018610       0.11714614      -0.01640878
H        5.04336605       8.42762123       0.73479026       0.03975465      -0.22753363      -0.04537483
H        6.18009385       7.21253392       0.87012085      -0.54181525       0.04841901      -0.13260876
H        4.29538929       6.95549847      -0.87335119      -0.00698414      -0.01525538       0.20655677
H        3.52161492       6.42733949       0.50226724      -0.18244111      -0.01851451      -0.07024202
6
Lattice="7.9999999630420415 0.0 0.0 0.0 7.9999999630420415 0.0 0.0 0.0 7.9999999630420415" Properties=species:S:1:pos:R:3:forces:R:3 energy=-831.3504344746905 free_energy=-831.3504344746905 pbc="T T T"
N        5.20531171       7.50976316       0.84692073      -0.17474837      -0.37764646       0.17354561
N        4.50751221       6.56773630      -0.00505467      -0.01626917      -0.05358462       0.42248727
H        4.64696569       7.78921586       1.66885551       0.16433283      -0.05685635      -0.34297256
H        5.39143128       8.33028837       0.28185721      -0.01481778       0.26098085      -0.04657091
H        3.48885653       6.68210052       0.08953935       0.18327158      -0.11381348      -0.06990212
H        4.74264279       5.62745390       0.34527525      -0.14176883       0.34092005      -0.13658728
6
Lattice="7.9999999630420415 0.0 0.0 0.0 7.9999999630420415 0.0 0.0 0.0 7.9999999630420415" Properties=species:S:1:pos:R:3:forces:R:3 energy=-831.3484549825712 free_energy=-831.3484549825712 pbc="T T T"
N        4.12945768       6.75010387       0.45553895       0.35480992       0.52958683       0.44115039
N        5.37234547       7.49331772       0.43760638      -0.18023176       0.01022014       0.29767872
H        4.23292498       5.82696132       0.87270866       0.06152496      -0.22987462      -0.00820850
H        3.82717249       6.64364587      -0.50244748      -0.07219992      -0.06304345      -0.34080384
H        6.17997651       6.88351683       0.28802710       0.05500747      -0.11144549      -0.05697436
H        5.50696767       7.91347974       1.36828416      -0.21891092      -0.13544340      -0.33284216
6
Lattice="7.9999999630420415 0.0 0.0 0.0 7.9999999630420415 0.0 0.0 0.0 7.9999999630420415" Properties=species:S:1:pos:R:3:forces:R:3 energy=-831.351253265231 free_energy=-831.351253265231 pbc="T T T"
N        5.33317129       7.27454572       0.88498046       0.34338137      -0.20017838      -0.12141340
N        4.21885187       6.74509813       0.15272867       0.01179982      -0.13463402      -0.13881823
H        5.70978992       8.11797885       0.43955084       0.00996637      -0.03351639       0.06759430
H        6.07779450       6.56239037       0.86493761      -0.27827050       0.29290161      -0.01156045
H        4.22644017       6.99922197      -0.84183009       0.14160274      -0.00855766       0.09553422
H        3.38147696       7.15445671       0.55196753      -0.22848005       0.08398508       0.10866356
6
Lattice="7.9999999630420415 0.0 0.0 0.0 7.9999999630420415 0.0 0.0 0.0 7.9999999630420415" Properties=species:S:1:pos:R:3:forces:R:3 energy=-831.341400567361 free_energy=-831.341400567361 pbc="T T T"
N        4.08213643       6.95058443       0.57038470       0.17150467       0.14320453       0.00488381
N        5.47129229       7.30317522       0.35916952      -0.42717542      -0.32219548      -0.42506789
H        3.95647511       5.95456627       0.78015885       0.01718628       0.11985326      -0.13295277
H        3.55518569       7.18357213      -0.27779661       0.24522642      -0.15904664       0.16403612
H        6.01836054       6.50658343       0.00873731      -0.11717391       0.11556209       0.01734775
H        5.85564136       7.55051542       1.26061064       0.11043222       0.10262198       0.37175323
6
Lattice="7.9999999630420415 0.0 0.0 0.0 7.9999999630420415 0.0 0.0 0.0 7.9999999630420415" Properties=species:S:1:pos:R:3:forces:R:3 energy=-831.33663435742 free_energy=-831.33663435742 pbc="T T T"
N        4.24261691       7.29077501       0.86768457       0.70105859       0.18758846      -0.04092991
N        5.36453925       6.95906059       0.02454074      -0.82578923      -0.15457781      -0.36080136
H        3.95930149       6.51131011       1.44817129      -0.18465714      -0.30054782       0.20530362
H        3.45989277       7.57907827       0.29243621      -0.09610552      -0.03778699      -0.25232755
H        5.38213780       5.96487257      -0.23946406      -0.02097557       0.21414641       0.11251790
H        6.20823853       7.16744469       0.53186908       0.42646888       0.09117749       0.33623704
6
Lattice="7.9999999630420415 0.0 0.0 0.0 7.9999999630420415 0.0 0.0 0.0 7.9999999630420415" Properties=species:S:1:pos:R:3:forces:R:3 energy=-831.3393480126759 free_energy=-831.3393480126759 pbc="T T T"
N        4.12810325       6.96391844       0.72235506       0.27170621       0.28454527       0.29505980
N        5.38930474       7.25522729       0.12710203       0.31694014       0.50236039      -0.06913079
H        4.21270075       6.34198803       1.52542683      -0.01668286      -0.12380067       0.15364501
H        3.58117481       6.49784104       0.02051161      -0.45732700      -0.33674561      -0.37263204
H        6.07546928       6.49993706       0.21053448      -0.05061037       0.02070766       0.11332883
H        5.76846295       8.09776861       0.57591723      -0.06402613      -0.34706679      -0.12027055
6
Lattice="7.9999999630420415 0.0 0.0 0.0 7.9999999630420415 0.0 0.0 0.0 7.9999999630420415" Properties=species:S:1:pos:R:3:forces:R:3 energy=-831.3408989254995 free_energy=-831.3408989254995 pbc="T T T"
N        4.78974090       7.56990016       0.97318521      -0.58760454      -0.02546446      -0.25554323
N        4.90591424       6.48663288       0.03357539       0.30515626       0.28792242      -0.33260973
H        3.88967532       8.06713136       0.84517704       0.43800002      -0.14603352       0.15269807
H        5.53771440       8.23695371       0.77249430      -0.05885641      -0.07255936      -0.04031618
H        4.39354713       6.64128046      -0.84523793       0.07438073       0.01695051       0.28753187
H        4.56914084       5.63045801       0.45883222      -0.17107581      -0.06081559       0.18823946
6
Lattice="7.9999999630420415 0.0 0.0 0.0 7.9999999630420415 0.0 0.0 0.0 7.9999999630420415" Properties=species:S:1:pos:R:3:forces:R:3 energy=-831.3385629642514 free_energy=-831.3385629642514 pbc="T T T"
N        5.21338730       6.46202230       0.49928588      -0.28395006      -0.16659669      -0.03385372
N        4.34637674       7.61141280       0.57156814      -0.27684353      -0.28078786      -0.49319235
H        5.79325137       6.46572910      -0.34713747       0.00931305       0.11802032       0.05212295
H        4.58604691       5.65538252       0.40495572       0.19925124       0.09038610       0.08366113
H        4.14567261       7.99550240      -0.35738159      -0.04712858      -0.05903639       0.01922208
H        4.81634456       8.34089512       1.08217499       0.39935788       0.29801477       0.37204017
6
Lattice="7.9999999630420415 0.0 0.0 0.0 7.9999999630420415 0.0 0.0 0.0 7.9999999630420415" Properties=species:S:1:pos:R:3:forces:R:3 energy=-831.3425801808515 free_energy=-831.3425801808515 pbc="T T T"
N        4.12975627       6.97699527       0.72963082       0.20506450       0.23179472       0.36300943
N        5.39190511       7.24774143       0.12001728       0.04262143      -0.11061271      -0.23387706
H        4.20258356       6.33191222       1.51892087       0.04949065      -0.02887786       0.09428955
H        3.56261172       6.53174891       0.03077315      -0.46767158      -0.29705600      -0.42875665
H        6.05459113       6.47336741       0.20853837       0.00878932       0.00724228       0.05147529
H        5.78824764       8.06136941       0.57282062       0.16170568       0.19750957       0.15385918
6
Lattice="7.9999999630420415 0.0 0.0 0.0 7.9999999630420415 0.0 0.0 0.0 7.9999999630420415" Properties=species:S:1:pos:R:3:forces:R:3 energy=-831.3370693313911 free_energy=-831.3370693313911 pbc="T T T"
N        5.51855326       7.11938553       0.45537008      -0.29709148      -0.60116788       0.11116165
N        4.08038074       7.07385196       0.33824758       0.01192940       0.21898883      -0.18006310
H        5.83742992       6.44363215       1.15623912       0.09785233      -0.09054963      -0.08656159
H        5.76137882       8.02496785       0.82923433       0.03099671       0.52974547       0.09931117
H        3.61396488       6.70322765       1.16818373       0.11322341       0.00081298       0.14170198
H        3.85435207       6.44706475      -0.43039102       0.04308963      -0.05782977      -0.08555012
6
Lattice="7.9999999630420415 0.0 0.0 0.0 7.9999999630420415 0.0 0.0 0.0 7.9999999630420415" Properties=species:S:1:pos:R:3:forces:R:3 energy=-831.3426644000846 free_energy=-831.3426644000846 pbc="T T T"
N        4.20224549       7.06806144       0.87707102      -0.34390870      -0.16369211      -0.12206749
N        5.46743566       7.07213405       0.17421389      -0.75036103       0.43541992      -0.15391112
H        3.42698083       6.62875593       0.33411564       0.60764115       0.34623426       0.27637328
H        3.93722523       8.03990733       1.06342589       0.10120171      -0.19338244      -0.11450254
H        5.30703110       7.14320843      -0.83847080       0.19551697      -0.06700681       0.09867714
H        5.90065852       6.17831473       0.36052469       0.18990991      -0.35757257       0.01543073
6
Lattice="7.9999999630420415 0.0 0.0 0.0 7.9999999630420415 0.0 0.0 0.0 7.9999999630420415" Properties=species:S:1:pos:R:3:forces:R:3 energy=-831.3441217057475 free_energy=-831.3441217057475 pbc="T T T"
N        4.09234532       6.88103733       0.55256455      -0.00208696       0.14997502       0.55774144
N        5.50460999       7.07318525       0.35749629       0.21867258       0.03757513      -0.04284075
H        3.57678146       7.76184791       0.43056782       0.01313808      -0.11412921      -0.02931520
H        3.96495219       6.61113113       1.54316680       0.05536819       0.09771349      -0.51949911
H        5.82717520       8.02953918       0.55914789      -0.21783054      -0.16456809       0.00030519
H        5.71206769       6.88947853      -0.62471863      -0.06726160      -0.00656660       0.03360843
6
Lattice="7.9999999630420415 0.0 0.0 0.0 7.9999999630420415 0.0 0.0 0.0 7.9999999630420415" Properties=species:S:1:pos:R:3:forces:R:3 energy=-831.3422269770889 free_energy=-831.3422269770889 pbc="T T T"
N        4.49963862       6.41487023       0.28211049      -0.11560477       0.35343541      -0.45672254
N        4.98254245       7.74819707       0.55168754       0.33712587      -0.35146055      -0.13025209
H        4.85538454       5.71504078       0.92797644       0.14472637      -0.06588838       0.28502195
H        4.82229212       6.14719899      -0.65542005      -0.06814709       0.15656578       0.26464802
H        5.89726910       7.73931883       1.02341612      -0.28030681       0.04575021      -0.06336998
H        4.30945046       8.22852517       1.14603105      -0.01779358      -0.13840248       0.10067463
6
Lattice="7.9999999630420415 0.0 0.0 0.0 7.9999999630420415 0.0 0.0 0.0 7.9999999630420415" Properties=species:S:1:pos:R:3:forces:R:3 energy=-831.3407288543502 free_energy=-831.3407288543502 pbc="T T T"
N        4.20148745       7.11436016       0.88684495       0.67606335      -0.77232699      -0.30272606
N        5.45232387       7.00877222       0.16002094       0.01165790       0.00950331       0.84717361
H        3.43546686       6.83109186       0.28165200      -0.35955181       0.08158933       0.03287850
H        4.07997949       8.07620766       1.16096789      -0.08620318       0.49630467      -0.00279685
H        5.31856796       7.12126506      -0.83580204      -0.03899746      -0.03343128      -0.45874805
H        5.84897010       6.08106357       0.34371067      -0.20296880       0.21836071      -0.11578089
6
Lattice="7.9999999630420415 0.0 0.0 0.0 7.9999999630420415 0.0 0.0 0.0 7.9999999630420415" Properties=species:S:1:pos:R:3:forces:R:3 energy=-831.3459731683057 free_energy=-831.3459731683057 pbc="T T T"
N        4.08720089       6.89715974       0.55855141       0.29500169      -0.06777377       0.24411699
N        5.50664582       7.05844792       0.35283734       0.10919141      -0.22895545      -0.39148054
H        3.60439522       7.78789708       0.44857927      -0.18665798       0.14592065      -0.02132062
H        3.96129004       6.60853362       1.53602985       0.02263985       0.06375282      -0.24792531
H        5.83830165       8.00540938       0.55759358      -0.11577163       0.01577398       0.02103291
H        5.69874986       6.88046117      -0.64333419      -0.12440308       0.07128152       0.39557682
6
Lattice="7.9999999630420415 0.0 0.0 0.0 7.9999999630420415 0.0 0.0 0.0 7.9999999630420415" Properties=species:S:1:pos:R:3:forces:R:3 energy=-831.3410494044522 free_energy=-831.3410494044522 pbc="T T T"
N        5.39751576       7.34710936       0.75040201      -0.08575143      -0.14146647      -0.27867981
N        4.19847194       6.66153249       0.29486212      -0.22949795       0.32910892       0.50217733
H        5.51304675       8.25125589       0.27048272      -0.01108274      -0.17877215       0.10662853
H        6.19029734       6.75712561       0.46565081      -0.22981523       0.17948228       0.10329921
H        3.97145086       6.91839529      -0.67042215      -0.06382275       0.00689261       0.02744370
H        3.41295484       6.98428517       0.89602950       0.61997011      -0.19524520      -0.46086844
6
Lattice="7.9999999630420415 0.0 0.0 0.0 7.9999999630420415 0.0 0.0 0.0 7.9999999630420415" Properties=species:S:1:pos:R:3:forces:R:3 energy=-831.3382826869977 free_energy=-831.3382826869977 pbc="T T T"
N        4.09996119       6.85755664       0.54609477      -0.27548316       0.50130135       0.37562557
N        5.50255086       7.09580888       0.36466091       0.17838674       0.17978336       0.40750442
H        3.53652461       7.71733187       0.40223107       0.27421715      -0.36247978      -0.05079291
H        3.97226017       6.61783865       1.53730935       0.02047164      -0.03919390      -0.26310767
H        5.80277293       8.06041918       0.56154172      -0.24892264      -0.16581456       0.00730990
H        5.73052162       6.90240652      -0.59778215       0.05133027      -0.11359622      -0.47653957
6
Lattice="7.9999999630420415 0.0 0.0 0.0 7.9999999630420415 0.0 0.0 0.0 7.9999999630420415" Properties=species:S:1:pos:R:3:forces:R:3 energy=-831.3382743875255 free_energy=-831.3382743875255 pbc="T T T"
N        5.13719647       7.55619922       0.85765422      -0.60031196       0.31983469       0.27802830
N        4.58397473       6.55250197      -0.01307540       0.49002347      -0.49828288      -0.16707825
H        4.52499920       7.67860970       1.68243860       0.34403469      -0.11397417      -0.09805622
H        5.06888926       8.46012036       0.36786198       0.11688826      -0.33942547      -0.04907516
H        3.57972299       6.42221234       0.10673553      -0.12973761       0.06743387       0.08860047
H        5.03785384       5.64970409       0.20950193      -0.22089684       0.56441397      -0.05241914
6
Lattice="7.9999999630420415 0.0 0.0 0.0 7.9999999630420415 0.0 0.0 0.0 7.9999999630420415" Properties=species:S:1:pos:R:3:forces:R:3 energy=-831.3439944925279 free_energy=-831.3439944925279 pbc="T T T"
N        4.09221256       6.86031805       0.52027316       0.29626385      -0.25519973       0.24939829
N        5.42549295       7.40034480       0.40209317      -0.10607497       0.05271430      -0.13963944
H        4.13250042       5.87094534       0.78787414      -0.05232426      -0.01406522       0.17419430
H        3.71318208       6.84976187      -0.41603516      -0.27485813       0.17729299      -0.45478187
H        6.09959057       6.68027461       0.12993726       0.07515386       0.01410147       0.05373760
H        5.69045210       7.74593309       1.32024918       0.06183966       0.02515619       0.11709112
6
Lattice="7.9999999630420415 0.0 0.0 0.0 7.9999999630420415 0.0 0.0 0.0 7.9999999630420415" Properties=species:S:1:pos:R:3:forces:R:3 energy=-831.3394514159347 free_energy=-831.3394514159347 pbc="T T T"
N        4.09347104       7.17585896       0.63297050       0.33701300      -0.03152481       0.13732519
N        5.43577389       6.80984996       0.24351727      -0.11265031      -0.13847422       0.66765378
H        4.03335482       8.18493728       0.81874681      -0.09408104      -0.21140253       0.02815178
H        3.89922953       6.67384062       1.50923047       0.02050583       0.29265916      -0.22639875
H        6.14927999       7.46688963       0.57578633      -0.16453595      -0.04971382      -0.12039216
H        5.47308483       6.74592489      -0.76058826       0.01374872       0.13845596      -0.48633985
6
Lattice="7.9999999630420415 0.0 0.0 0.0 7.9999999630420415 0.0 0.0 0.0 7.9999999630420415" Properties=species:S:1:pos:R:3:forces:R:3 energy=-831.3393942720286 free_energy=-831.3393942720286 pbc="T T T"
N        4.58382613       7.68542962       0.75767197       0.12264188      -0.20425435      -0.13871230
N        4.86777524       6.43440689       0.09088959       0.25464411      -0.06885209       0.38823375
H        5.41165737       8.05891379       1.23271941      -0.01833017      -0.00100659      -0.05372654
H        3.91030556       7.44850031       1.47613897      -0.22255700       0.11503424       0.30122222
H        5.69031238       5.96290798       0.50162736      -0.29366446       0.16097600      -0.22483063
H        5.08617881       6.66237717      -0.87182692       0.15726538      -0.00189696      -0.27218649
6
Lattice="7.9999999630420415 0.0 0.0 0.0 7.9999999630420415 0.0 0.0 0.0 7.9999999630420415" Properties=species:S:1:pos:R:3:forces:R:3 energy=-831.3386961639754 free_energy=-831.3386961639754 pbc="T T T"
N        4.30606264       7.35548088       0.89248291       0.24441858       0.96874745       0.59920562
N        5.33081049       6.68495979       0.15404786      -0.09009043      -0.17003091      -0.27961210
H        3.57728588       7.76079080       0.28988188       0.11457016      -0.13992406       0.02746838
H        4.77089469       8.15931451       1.36503828      -0.45362976      -0.59060296      -0.29191174
H        5.40792742       7.06662977      -0.79830912       0.04230647      -0.27335532       0.12522635
H        5.04544381       5.70173503       0.09626337       0.14242523       0.20516555      -0.18037677
6
Lattice="7.9999999630420415 0.0 0.0 0.0 7.9999999630420415 0.0 0.0 0.0 7.9999999630420415" Properties=species:S:1:pos:R:3:forces:R:3 energy=-831.3396965905033 free_energy=-831.3396965905033 pbc="T T T"
N        5.22861740       6.47970036       0.50548278       0.23269461       0.17367108      -0.00925391
N        4.32051557       7.58866183       0.56346205      -0.00613825       0.32084796      -0.08189761
H        5.83496234       6.51652113      -0.31670211       0.16605161       0.18606199      -0.04945286
H        4.66068327       5.65882755       0.36893223      -0.35220154      -0.53102536       0.07511246
H        4.14746798       7.99197299      -0.36393673      -0.04135054      -0.07827004       0.01782160
H        4.77261926       8.32569783       1.10768254       0.00094385      -0.07128589       0.04767057
6
Lattice="7.9999999630420415 0.0 0.0 0.0 7.9999999630420415 0.0 0.0 0.0 7.9999999630420415" Properties=species:S:1:pos:R:3:forces:R:3 energy=-831.3424139192961 free_energy=-831.3424139192961 pbc="T T T"
N        5.35336788       6.61451088       0.54579249      -0.04472331      -0.71170527      -0.15040054
N        4.17766469       7.41931530       0.49713825      -0.14216169       0.51665881       0.20866816
H        6.13809495       6.97525030      -0.00492847      -0.05364864       0.23350553      -0.02588741
H        5.10423583       5.70889445       0.12021195       0.13378298       0.31500282       0.26102122
H        4.07425044       7.92806211      -0.38663223       0.04693446      -0.01039806       0.01067316
H        4.22585449       8.12256471       1.24942337       0.05981594      -0.34306384      -0.30407460
6
Lattice="7.9999999630420415 0.0 0.0 0.0 7.9999999630420415 0.0 0.0 0.0 7.9999999630420415" Properties=species:S:1:pos:R:3:forces:R:3 energy=-831.3373634864507 free_energy=-831.3373634864507 pbc="T T T"
N        5.45058617       6.75638945       0.49718336       0.04076947       0.03206860      -0.51702108
N        4.16070961       7.40265809       0.56545157       0.40134818       0.42323752      -0.12325766
H        5.67425149       6.43714402      -0.46675129      -0.13761753       0.04523316       0.67957110
H        5.40927567       5.95563430       1.12177732       0.06157381      -0.20524114      -0.09291195
H        3.54714266       7.07101857      -0.18089183      -0.14134537      -0.04627909      -0.05150331
H        4.34992340       8.39442516       0.36601100      -0.22472881      -0.24901931       0.10512264
6
Lattice="7.9999999630420415 0.0 0.0 0.0 7.9999999630420415 0.0 0.0 0.0 7.9999999630420415" Properties=species:S:1:pos:R:3:forces:R:3 energy=-831.339887750475 free_energy=-831.339887750475 pbc="T T T"
N        4.69012033       7.64224732       0.85162421      -0.37381243      -0.05078700       0.19286153
N        4.85026053       6.39402700       0.18448369       0.61086429       0.02614426      -0.34235010
H        4.75379826       8.45202269       0.24349134      -0.01207004       0.17855360      -0.32052066