4
Lattice="3.520000004905587 0.0 0.0 0.0 3.520000004905587 0.0 0.0 0.0 3.520000004905587" Properties=species:S:1:pos:R:3:forces:R:3:magmoms:R:1 energy=-23353.62659345834 free_energy=-23353.62659345834 stress="0.21173173685306956 0.0 0.0 0.0 0.21172990053783916 0.0 0.0 0.0 0.21172990053783916" pbc="T T T"
Ni       0.00000000       0.00000000       0.00000000       0.00003420      -0.00001954      -0.00002057       0.72520000
Ni       0.00000000       1.76000000       1.76000000      -0.00008073       0.00005065       0.00003754       0.72510000
Ni       1.76000000       0.00000000       1.76000000      -0.00001414      -0.00003522      -0.00003394       0.72510000
Ni       1.76000000       1.76000000       0.00000000       0.00006094       0.00000437       0.00001697       0.72510000
4
Lattice="3.520000004905587 0.0 0.0 0.0 3.520000004905587 0.0 0.0 0.0 3.520000004905587" Properties=species:S:1:pos:R:3:forces:R:3:magmoms:R:1 energy=-23353.626216172503 free_energy=-23353.626216172503 stress="0.2116619568743144 -7.345260921595614e-06 -3.672630460797807e-06 -7.345260921595614e-06 0.2116445118796256 1.3772364227991774e-05 -3.672630460797807e-06 1.3772364227991774e-05 0.2116536934557776" pbc="T T T"
Ni       3.51954405       3.51742943       0.00341452       0.00126061       0.03884551      -0.04343750       0.72510000
Ni       0.00136087       1.75998164       1.75607299      -0.01647486      -0.01348286       0.04837273       0.72520000
Ni       1.75791272       3.51871737       1.76109540       0.02356647       0.02624634      -0.00058544       0.72510000
Ni       1.76118236       1.76387158       3.51941710      -0.00835249      -0.05160898      -0.00434954       0.72520000
4
Lattice="3.520000004905587 0.0 0.0 0.0 3.520000004905587 0.0 0.0 0.0 3.520000004905587" Properties=species:S:1:pos:R:3:forces:R:3:magmoms:R:1 energy=-23353.62508608373 free_energy=-23353.62508608373 stress="0.21253145213590827 -3.305367414718026e-05 -8.263418536795066e-06 -3.305367414718026e-05 0.2124579995266923 6.335287544876216e-05 -8.263418536795066e-06 6.335287544876216e-05 0.2124947258313003" pbc="T T T"
Ni       3.51908829       3.51486482       0.00682235       0.00246415       0.08392312      -0.09358250       0.72520000
Ni       0.00271920       1.75996120       1.75215343      -0.03571237      -0.02950058       0.10449400       0.72520000
Ni       1.75582907       3.51743877       1.76219071       0.05106879       0.05680390      -0.00135266       0.72510000
Ni       1.76236344       1.76773522       3.51883352      -0.01782057      -0.11122644      -0.00955885       0.72520000
4
Lattice="3.520000004905587 0.0 0.0 0.0 3.520000004905587 0.0 0.0 0.0 3.520000004905587" Properties=species:S:1:pos:R:3:forces:R:3:magmoms:R:1 energy=-23353.623207954017 free_energy=-23353.623207954017 stress="0.21071900900350457 -7.069813637035779e-05 -2.4790255610385195e-05 -7.069813637035779e-05 0.21055833142084465 0.00013129653897352159 -2.4790255610385195e-05 0.00013129653897352159 0.2106400474485974" pbc="T T T"
Ni       3.51863247       3.51231065       0.01021909       0.00401503       0.11658076      -0.13087841       0.72520000
Ni       0.00407335       1.75993621       1.74824615      -0.04964003      -0.03984850       0.14610217       0.72510000
Ni       1.75375126       3.51616767       1.76328687       0.07113908       0.07832763      -0.00266958       0.72500000
Ni       1.76354293       1.77158548       3.51824790      -0.02551383      -0.15505989      -0.01255418       0.72520000
4
Lattice="3.520000004905587 0.0 0.0 0.0 3.520000004905587 0.0 0.0 0.0 3.520000004905587" Properties=species:S:1:pos:R:3:forces:R:3:magmoms:R:1 energy=-23353.620583279986 free_energy=-23353.620583279986 stress="0.21224406880235083 -0.00012670575089752432 -4.2235250299174776e-05 -0.00012670575089752432 0.21195852178402383 0.00023963913756705688 -4.2235250299174776e-05 0.00023963913756705688 0.21210450884484056" pbc="T T T"
Ni       3.51817587       3.50976658       0.01360611       0.00495503       0.16232891      -0.18117098       0.72630000
Ni       0.00542402       1.75990501       1.74434935      -0.06862454      -0.05673808       0.20211442       0.72620000
Ni       1.75167801       3.51490472       1.76438599       0.09809196       0.10951614      -0.00234073       0.72590000
Ni       1.76472210       1.77542371       3.51765856      -0.03442270      -0.21510672      -0.01860270       0.72620000
4
Lattice="3.520000004905587 0.0 0.0 0.0 3.520000004905587 0.0 0.0 0.0 3.520000004905587" Properties=species:S:1:pos:R:3:forces:R:3:magmoms:R:1 energy=-23353.617213966434 free_energy=-23353.617213966434 stress="0.21189975969665106 -0.00019464941442228376 -6.886182113995888e-05 -0.00019464941442228376 0.2114599621989705 0.00036726304607978067 -6.886182113995888e-05 0.00036726304607978067 0.21168674712992477" pbc="T T T"
Ni       3.51771773       3.50723466       0.01698232       0.00612103       0.20200052      -0.22541504       0.72640000
Ni       0.00677094       1.75986491       1.74046402      -0.08530560      -0.07036004       0.25190178       0.72620000
Ni       1.74960941       3.51365226       1.76549028       0.12199833       0.13600724      -0.00333909       0.72570000
Ni       1.76590192       1.77924817       3.51706338      -0.04281375      -0.26764773      -0.02314764       0.72620000
4
Lattice="3.520000004905587 0.0 0.0 0.0 3.520000004905587 0.0 0.0 0.0 3.520000004905587" Properties=species:S:1:pos:R:3:forces:R:3:magmoms:R:1 energy=-23353.613100965766 free_energy=-23353.613100965766 stress="0.21039949015341514 -0.00027636544217503496 -0.00010466996813273751 -0.00027636544217503496 0.20977789744792513 0.0005178408949724907 -0.00010466996813273751 0.0005178408949724907 0.21011486129270332" pbc="T T T"
Ni       3.51725731       3.50471607       0.02034753       0.00807866       0.23431132      -0.26365017       0.72650000
Ni       0.00811418       1.75981371       1.73659019      -0.09949732      -0.07919126       0.29479935       0.72620000
Ni       1.74754507       3.51241195       1.76660181       0.14241880       0.15666451      -0.00577341       0.72550000
Ni       1.76708344       1.78305829       3.51646046      -0.05100040      -0.31178457      -0.02537576       0.72620000
4
Lattice="3.520000004905587 0.0 0.0 0.0 3.520000004905587 0.0 0.0 0.0 3.520000004905587" Properties=species:S:1:pos:R:3:forces:R:3:magmoms:R:1 energy=-23353.60824169289 free_energy=-23353.60824169289 stress="0.2104545796103271 -0.00037001751892537906 -0.00014690521843191228 -0.00037001751892537906 0.2096218106533412 0.0006996361027819822 -0.00014690521843191228 0.0006996361027819822 0.21008272577617135" pbc="T T T"
Ni       3.51679392       3.50221043       0.02370303       0.00948711       0.27574619      -0.30956262       0.72660000
Ni       0.00945443       1.75974985       1.73272621      -0.11605034      -0.09334930       0.34574833       0.72620000
Ni       1.74548372       3.51118436       1.76772265       0.16620305       0.18410564      -0.00620690       0.72530000
Ni       1.76826793       1.78685536       3.51584811      -0.05963957      -0.36650253      -0.02997855       0.72620000
4
Lattice="3.520000004905587 0.0 0.0 0.0 3.520000004905587 0.0 0.0 0.0 3.520000004905587" Properties=species:S:1:pos:R:3:forces:R:3:magmoms:R:1 energy=-23353.602636147814 free_energy=-23353.602636147814 stress="0.21076858951472532 -0.00048570537844050995 -0.00019373125680708432 -0.00048570537844050995 0.2096869998440204 0.0009190757728146512 -0.00019373125680708432 0.0009190757728146512 0.2102939020276672" pbc="T T T"
Ni       3.51632687       3.49971956       0.02704795       0.01106011       0.32173422      -0.36104896       0.72760000
Ni       0.01079162       1.75967092       1.72887276      -0.13522820      -0.10833703       0.40388277       0.72710000
Ni       1.74342518       3.50997156       1.76885491       0.19384807       0.21425697      -0.00803830       0.72590000
Ni       1.76945634       1.79063797       3.51522439      -0.06967998      -0.42765416      -0.03479551       0.72710000
4
Lattice="3.520000004905587 0.0 0.0 0.0 3.520000004905587 0.0 0.0 0.0 3.520000004905587" Properties=species:S:1:pos:R:3:forces:R:3:magmoms:R:1 energy=-23353.59628814013 free_energy=-23353.59628814013 stress="0.20910672423121432 -0.0006023113955708403 -0.00025616597464064704 -0.0006023113955708403 0.20777264121632952 0.0011440243885385167 -0.00025616597464064704 0.0011440243885385167 0.20855215703163388" pbc="T T T"
Ni       3.51585547       3.49724594       0.03038064       0.01283418       0.35604817      -0.40084192       0.72780000
Ni       0.01212532       1.75957430       1.72503154      -0.14934844      -0.11812342       0.44837005       0.72710000
Ni       1.74136980       3.50877601       1.77000060       0.21444055       0.23597199      -0.01016331       0.72560000
Ni       1.77064941       1.79440376       3.51458722      -0.07792654      -0.47389648      -0.03736481       0.72710000
4
Lattice="3.520000004905587 0.0 0.0 0.0 3.520000004905587 0.0 0.0 0.0 3.520000004905587" Properties=species:S:1:pos:R:3:forces:R:3:magmoms:R:1 energy=-23353.58919576504 free_energy=-23353.58919576504 stress="0.20853471203694507 -0.0007372805650051596 -0.0003250277957806059 -0.0007372805650051596 0.20691324568850283 0.0014056993088703605 -0.0003250277957806059 0.0014056993088703605 0.20788832907584467" pbc="T T T"
Ni       3.51537889       3.49478954       0.03370226       0.01503375       0.39774040      -0.44781392       0.72790000
Ni       0.01345629       1.75945802       1.72120099      -0.16558059      -0.13063312       0.50009473       0.72720000
Ni       1.73931621       3.50759863       1.77116213       0.23822968       0.26224764      -0.01195306       0.72530000
Ni       1.77184861       1.79815382       3.51393463      -0.08768259      -0.52935466      -0.04032775       0.72720000
4
Lattice="3.520000004905587 0.0 0.0 0.0 3.520000004905587 0.0 0.0 0.0 3.520000004905587" Properties=species:S:1:pos:R:3:forces:R:3:magmoms:R:1 energy=-23353.58136174368 free_energy=-23353.58136174368 stress="0.20852185783033228 -0.0008832676258218725 -0.0004030711930725593 -0.0008832676258218725 0.2065909723655678 0.0016921644848125895 -0.0004030711930725593 0.0016921644848125895 0.2077854954229423" pbc="T T T"
Ni       3.51489638       3.49235190       0.03701236       0.01681399       0.43917116      -0.49500961       0.72810000
Ni       0.01478479       1.75931964       1.71738119      -0.18255861      -0.14285769       0.55370121       0.72720000
Ni       1.73726379       3.50644125       1.77234189       0.26306473       0.28855671      -0.01463678       0.72510000
Ni       1.77305505       1.80188722       3.51326456      -0.09732011      -0.58487018      -0.04405457       0.72710000
4
Lattice="3.520000004905587 0.0 0.0 0.0 3.520000004905587 0.0 0.0 0.0 3.520000004905587" Properties=species:S:1:pos:R:3:forces:R:3:magmoms:R:1 energy=-23353.572792198614 free_energy=-23353.572792198614 stress="0.20825742843715483 -0.0010411907356361783 -0.0004921324817469061 -0.0010411907356361783 0.20599600623091857 0.002004338073980403 -0.0004921324817469061 0.002004338073980403 0.20743843184439695" pbc="T T T"
Ni       3.51440717       3.48993490       0.04031003       0.01867984       0.48112256      -0.54258633       0.72900000
Ni       0.01611077       1.75915661       1.71357305      -0.19931372      -0.15519102       0.60687239       0.72790000
Ni       1.73521233       3.50530599       1.77354212       0.28755192       0.31469171      -0.01702944       0.72540000
Ni       1.77426974       1.80560251       3.51257480      -0.10691804      -0.64062326      -0.04725636       0.72790000
4
Lattice="3.520000004905587 0.0 0.0 0.0 3.520000004905587 0.0 0.0 0.0 3.520000004905587" Properties=species:S:1:pos:R:3:forces:R:3:magmoms:R:1 energy=-23353.56349366058 free_energy=-23353.56349366058 stress="0.20741455974640174 -0.0012101317368328772 -0.0005931298194188458 -0.0012101317368328772 0.2048033194887745 0.0023403837611434023 -0.0005931298194188458 0.0023403837611434023 0.20651935607158228" pbc="T T T"
Ni       3.51391036       3.48754018       0.04359482       0.02089638       0.52177762      -0.58902662       0.72920000
Ni       0.01743448       1.75896620       1.70977675      -0.21574255      -0.16638663       0.65955661       0.72790000
Ni       1.73316119       3.50419485       1.77476543       0.31194552       0.33974737      -0.02079894       0.72500000
Ni       1.77549398       1.80929878       3.51186300      -0.11709935      -0.69513836      -0.04973079       0.72790000
4
Lattice="3.520000004905587 0.0 0.0 0.0 3.520000004905587 0.0 0.0 0.0 3.520000004905587" Properties=species:S:1:pos:R:3:forces:R:3:magmoms:R:1 energy=-23353.553475517496 free_energy=-23353.553475517496 stress="0.2066295349854062 -0.0013900906294119699 -0.0007060632060883783 -0.0013900906294119699 0.203645522736008 0.0027030560191471857 -0.0007060632060883783 0.0027030560191471857 0.20566546948944678" pbc="T T T"
Ni       3.51340504       3.48516926       0.04686646       0.02324894       0.56329734      -0.63663317       0.72930000
Ni       0.01875621       1.75874569       1.70599239      -0.23207754      -0.17782341       0.71294377       0.72790000
Ni       1.73110966       3.50310978       1.77601440       0.33619719       0.36486885      -0.02400176       0.72470000
Ni       1.77672909       1.81297527       3.51112675      -0.12736859      -0.75034278      -0.05230884       0.72800000
4
Lattice="3.520000004905587 0.0 0.0 0.0 3.520000004905587 0.0 0.0 0.0 3.520000004905587" Properties=species:S:1:pos:R:3:forces:R:3:magmoms:R:1 energy=-23353.542749198146 free_energy=-23353.542749198146 stress="0.20620810064002965 -0.001581067413373456 -0.0008290963265251049 -0.001581067413373456 0.20283111693132605 0.003091436690376554 -0.0008290963265251049 0.003091436690376554 0.20518343674146705" pbc="T T T"
Ni       3.51289029       3.48282398       0.05012437       0.02553337       0.60499857      -0.68370261       0.72960000
Ni       0.02007626       1.75849214       1.70222030      -0.24858017      -0.18908510       0.76616149       0.72800000
Ni       1.72905705       3.50205292       1.77729184       0.36113715       0.39013225      -0.02830039       0.72430000
Ni       1.77797641       1.81663097       3.51036349      -0.13809009      -0.80604547      -0.05415823       0.72800000
4
Lattice="3.520000004905587 0.0 0.0 0.0 3.520000004905587 0.0 0.0 0.0 3.520000004905587" Properties=species:S:1:pos:R:3:forces:R:3:magmoms:R:1 energy=-23353.531330076963 free_energy=-23353.531330076963 stress="0.20538175878635015 -0.0017821439311021356 -0.0009649836535746237 -0.0017821439311021356 0.20158701336273083 0.0035046076172163074 -0.0009649836535746237 0.0035046076172163074 0.20430475990372118" pbc="T T T"
Ni       3.51236510       3.48050637       0.05336797       0.02805742       0.64648049      -0.73093609       0.73030000
Ni       0.02139490       1.75820241       1.69846086      -0.26456420      -0.20032159       0.81899740       0.72860000
Ni       1.72700273       3.50102661       1.77860057       0.38531503       0.41448728      -0.03209328       0.72460000
Ni       1.77923727       1.82026462       3.50957061      -0.14880825      -0.86064644      -0.05596777       0.72870000
4
Lattice="3.520000004905587 0.0 0.0 0.0 3.520000004905587 0.0 0.0 0.0 3.520000004905587" Properties=species:S:1:pos:R:3:forces:R:3:magmoms:R:1 energy=-23353.51923529712 free_energy=-23353.51923529712 stress="0.2048501455271497 -0.00199332018259801 -0.0011118888720065359 -0.00199332018259801 0.20061652076346498 0.003943486957281645 -0.0011118888720065359 0.003943486957281645 0.20372999323660634" pbc="T T T"
Ni       3.51182844       3.47821855       0.05659662       0.03052851       0.68731270      -0.77734270       0.73050000
Ni       0.02271246       1.75787315       1.69471442      -0.28091025      -0.21058955       0.87184771       0.72860000
Ni       1.72494595       3.50003323       1.77994371       0.41027710       0.43845974      -0.03737613       0.72420000
Ni       1.78051315       1.82387508       3.50874526      -0.15989562      -0.91518288      -0.05712888       0.72870000
4
Lattice="3.520000004905587 0.0 0.0 0.0 3.520000004905587 0.0 0.0 0.0 3.520000004905587" Properties=species:S:1:pos:R:3:forces:R:3:magmoms:R:1 energy=-23353.506485539267 free_energy=-23353.506485539267 stress="0.2039365787000262 -0.002213678010245878 -0.0012707301394360411 -0.002213678010245878 0.19923377539497464 0.0044080747105725675 -0.0012707301394360411 0.0044080747105725675 0.2027769456320293" pbc="T T T"
Ni       3.51127919       3.47596280       0.05980965       0.03324848       0.72891392      -0.82366884       0.73060000
Ni       0.02402925       1.75750087       1.69098145      -0.29644177      -0.22169028       0.92344667       0.72870000
Ni       1.72288604       3.49907532       1.78132437       0.43459717       0.46241547      -0.04205733       0.72380000
Ni       1.78180553       1.82746102       3.50788454      -0.17140362      -0.96963885      -0.05772049       0.72880000
4
Lattice="3.520000004905587 0.0 0.0 0.0 3.520000004905587 0.0 0.0 0.0 3.520000004905587" Properties=species:S:1:pos:R:3:forces:R:3:magmoms:R:1 energy=-23353.493104205194 free_energy=-23353.493104205194 stress="0.2034527096368161 -0.00244505372927614 -0.001441507455863139 -0.00244505372927614 0.1982541012195568 0.004896534561858676 -0.001441507455863139 0.004896534561858676 0.20226002289467201" pbc="T T T"
Ni       3.51071619       3.47374177       0.06300626       0.03576070       0.76928281      -0.86905087       0.73090000
Ni       0.02534563       1.75708169       1.68726241      -0.31240086      -0.23195361       0.97494252       0.72870000
Ni       1.72082227       3.49815568       1.78274597       0.45949213       0.48541759      -0.04788680       0.72340000
Ni       1.78311591       1.83102088       3.50698537      -0.18285197      -1.02274679      -0.05800486       0.72890000
4
Lattice="3.520000004905587 0.0 0.0 0.0 3.520000004905587 0.0 0.0 0.0 3.520000004905587" Properties=species:S:1:pos:R:3:forces:R:3:magmoms:R:1 energy=-23353.4791168736 free_energy=-23353.4791168736 stress="0.20260616831560221 -0.0026837747092279974 -0.0016251389789030295 -0.0026837747092279974 0.19688145558483364 0.005410702826370369 -0.0016251389789030295 0.005410702826370369 0.20138134605692612" pbc="T T T"
Ni       3.51013819       3.47155821       0.06618559       0.03872287       0.80930074      -0.91426192       0.73150000
Ni       0.02666190       1.75661154       1.68355790      -0.32799203      -0.24129238       1.02582902       0.72920000
Ni       1.71875403       3.49727723       1.78421199       0.48442823       0.50731208      -0.05437086       0.72350000
Ni       1.78444589       1.83455304       3.50604452      -0.19515933      -1.07532045      -0.05719625       0.72950000
4
Lattice="3.520000004905587 0.0 0.0 0.0 3.520000004905587 0.0 0.0 0.0 3.520000004905587" Properties=species:S:1:pos:R:3:forces:R:3:magmoms:R:1 energy=-23353.464552932786 free_energy=-23353.464552932786 stress="0.2018073711903787 -0.0029316772653318495 -0.0018207065509405129 -0.0029316772653318495 0.19552166415672323 0.005946906873646849 -0.0018207065509405129 0.005946906873646849 0.20055500420324662" pbc="T T T"
Ni       3.50954390       3.46941516       0.06934657       0.04159916       0.84834860      -0.95723868       0.73170000
Ni       0.02797834       1.75608616       1.67986871      -0.34299416      -0.25103866       1.07433314       0.72920000
Ni       1.71668075       3.49644306       1.78572606       0.50824770       0.52851237      -0.06074283       0.72320000
Ni       1.78579701       1.83805563       3.50505866      -0.20685271      -1.12582231      -0.05635164       0.72950000
4
Lattice="3.520000004905587 0.0 0.0 0.0 3.520000004905587 0.0 0.0 0.0 3.520000004905587" Properties=species:S:1:pos:R:3:forces:R:3:magmoms:R:1 energy=-23353.44944245133 free_energy=-23353.44944245133 stress="0.20101316485323115 -0.003188761397587696 -0.002029128329590788 -0.003188761397587696 0.1941288190544657 0.006506064861303314 -0.002029128329590788 0.006506064861303314 0.19972958050718234" pbc="T T T"
Ni       3.50893196       3.46731592       0.07248819       0.04471971       0.88679842      -0.99992799       0.73190000
Ni       0.02929529       1.75550088       1.67619551      -0.35797392      -0.25987605       1.12261126       0.72930000
Ni       1.71460176       3.49565645       1.78729208       0.53252020       0.54871918      -0.06813398       0.72280000
Ni       1.78717100       1.84152677       3.50402422      -0.21926599      -1.17564155      -0.05454904       0.72960000
4
Lattice="3.520000004905587 0.0 0.0 0.0 3.520000004905587 0.0 0.0 0.0 3.520000004905587" Properties=species:S:1:pos:R:3:forces:R:3:magmoms:R:1 energy=-23353.433819307393 free_energy=-23353.433819307393 stress="0.20015836011348048 -0.0034522726331499384 -0.002250404314853856 -0.0034522726331499384 0.19263405845692097 0.0070872586317245675 -0.002250404314853856 0.0070872586317245675 0.19883896762043884" pbc="T T T"
Ni       3.50830095       3.46526414       0.07560913       0.04807654       0.92442086      -1.04146879       0.73210000
Ni       0.03061298       1.75485080       1.67253934      -0.37265569      -0.26809150       1.16959303       0.72930000
Ni       1.71251658       3.49492093       1.78891401       0.55659498       0.56792943      -0.07619567       0.72250000
Ni       1.78856950       1.84496414       3.50293753      -0.23201584      -1.22425854      -0.05192857       0.72970000
4
Lattice="3.520000004905587 0.0 0.0 0.0 3.520000004905587 0.0 0.0 0.0 3.520000004905587" Properties=species:S:1:pos:R:3:forces:R:3:magmoms:R:1 energy=-23353.417719556073 free_energy=-23353.417719556073 stress="0.19929161932473222 -0.0037240472872489758 -0.002484534506729716 -0.0037240472872489758 0.1910814539296187 0.007688651869680208 -0.002484534506729716 0.007688651869680208 0.1979290734237762" pbc="T T T"
Ni       3.50764945       3.46326392       0.07870777       0.05168072       0.96113313      -1.08185053       0.73220000
Ni       0.03193158       1.75413071       1.66890152      -0.38706827      -0.27562149       1.21534581       0.72940000
Ni       1.71042486       3.49424030       1.79059591       0.58049982       0.58608425      -0.08504207       0.72220000
Ni       1.78999412       1.84836508       3.50179480      -0.24511201      -1.27159589      -0.04845321       0.72980000
4
Lattice="3.520000004905587 0.0 0.0 0.0 3.520000004905587 0.0 0.0 0.0 3.520000004905587" Properties=species:S:1:pos:R:3:forces:R:3:magmoms:R:1 energy=-23353.40118170147 free_energy=-23353.40118170147 stress="0.19842120590552312 -0.00400133088703921 -0.002732437062833568 -0.00400133088703921 0.18947559626063487 0.008308408259939839 -0.002732437062833568 0.008308408259939839 0.19700540686288556" pbc="T T T"
Ni       3.50697596       3.46131969       0.08178232       0.05558057       0.99686298      -1.12103260       0.73280000
Ni       0.03325121       1.75333512       1.66528356      -0.40121345      -0.28236421       1.25983875       0.72980000
Ni       1.70832635       3.49361858       1.79234202       0.60421876       0.60313838      -0.09476135       0.72220000
Ni       1.79144649       1.85172661       3.50059210      -0.25858587      -1.31763689      -0.04404480       0.73030000
4
Lattice="3.520000004905587 0.0 0.0 0.0 3.520000004905587 0.0 0.0 0.0 3.520000004905587" Properties=species:S:1:pos:R:3:forces:R:3:magmoms:R:1 energy=-23353.38424669672 free_energy=-23353.38424669672 stress="0.19754895617108365 -0.004284123432520642 -0.002994111983165412 -0.004284123432520642 0.18781648544996943 0.00894285517204266 -0.002994111983165412 0.00894285517204266 0.19606704978015174" pbc="T T T"
Ni       3.50627897       3.45943636       0.08483067       0.05983214       1.03151605      -1.15897360       0.73290000
Ni       0.03457190       1.75245821       1.66168730      -0.41508609      -0.28819084       1.30305102       0.72990000
Ni       1.70622097       3.49306010       1.79415665       0.62772610       0.61904374      -0.10546177       0.72190000
Ni       1.79292818       1.85504534       3.49932539      -0.27247214      -1.36236894      -0.03861591       0.73050000
4
Lattice="3.520000004905587 0.0 0.0 0.0 3.520000004905587 0.0 0.0 0.0 3.520000004905587" Properties=species:S:1:pos:R:3:forces:R:3:magmoms:R:1 energy=-23353.36695808004 free_energy=-23353.36695808004 stress="0.19668037906710495 -0.004570588608462871 -0.0032695592677252474 -0.004570588608462871 0.18610412149762248 0.009591074448373472 -0.0032695592677252474 0.009591074448373472 0.1951158384908051" pbc="T T T"
Ni       3.50555696       3.45761927       0.08785035       0.06449432       1.06497690      -1.19562956       0.73310000
Ni       0.03589356       1.75149389       1.65811497      -0.42867874      -0.29295484       1.34496155       0.73000000
Ni       1.70410879       3.49256946       1.79604415       0.65098198       0.63374505      -0.11725490       0.72160000
Ni       1.79444070       1.85831739       3.49799053      -0.28679756      -1.40576711      -0.03207683       0.73060000
4
Lattice="3.520000004905587 0.0 0.0 0.0 3.520000004905587 0.0 0.0 0.0 3.520000004905587" Properties=species:S:1:pos:R:3:forces:R:3:magmoms:R:1 energy=-23353.34936170261 free_energy=-23353.34936170261 stress="0.19583659221873664 -0.004860726414865897 -0.0035596970741282744 -0.004860726414865897 0.18435503124066752 0.010249393458471479 -0.0035596970741282744 0.010249393458471479 0.19417013614714965" pbc="T T T"
Ni       3.50480841       3.45587431       0.09083854       0.06962496       1.09707172      -1.23090330       0.73320000
Ni       0.03721600       1.75043578       1.65456921      -0.44195875      -0.29650887       1.38549936       0.73010000
Ni       1.70199013       3.49215157       1.79800894       0.67389874       0.64715875      -0.13024746       0.72130000
Ni       1.79598547       1.86153835       3.49658332      -0.30156495      -1.44772160      -0.02434860       0.73070000
4
Lattice="3.520000004905587 0.0 0.0 0.0 3.520000004905587 0.0 0.0 0.0 3.520000004905587" Properties=species:S:1:pos:R:3:forces:R:3:magmoms:R:1 energy=-23353.33150668097 free_energy=-23353.33150668097 stress="0.19501392299551795 -0.0051517823788841234 -0.003865443559989692 -0.0051517823788841234 0.1825627875757982 0.010915057729491081 -0.003865443559989692 0.010915057729491081 0.19322443380349422" pbc="T T T"
Ni       3.50403184       3.45420787       0.09379196       0.07527059       1.12778278      -1.26487914       0.73330000
Ni       0.03853887       1.74927728       1.65105315      -0.45495619      -0.29864854       1.42466652       0.73020000
Ni       1.69986551       3.49181164       1.80005538       0.69656764       0.65930773      -0.14458779       0.72100000
Ni       1.79756379       1.86470322       3.49509952      -0.31688229      -1.48844170      -0.01519985       0.73080000
4
Lattice="3.520000004905587 0.0 0.0 0.0 3.520000004905587 0.0 0.0 0.0 3.520000004905587" Properties=species:S:1:pos:R:3:forces:R:3:magmoms:R:1 energy=-23353.313444716758 free_energy=-23353.313444716758 stress="0.19399293172741613 -0.005443756500517549 -0.004185880567694301 -0.005443756500517549 0.1805033600449058 0.01158531278858668 -0.004185880567694301 0.01158531278858668 0.1920556191593453" pbc="T T T"
Ni       3.50322580       3.45262691       0.09670683       0.08174128       1.15717769      -1.29816670       0.73360000
Ni       0.03986165       1.74801158       1.64757048      -0.46793563      -0.29857038       1.46361179       0.73060000
Ni       1.69773580       3.49155521       1.80218773       0.71955099       0.67014930      -0.16122874       0.72090000
Ni       1.79917676       1.86780632       3.49353496      -0.33335638      -1.52875686      -0.00421609       0.73120000
4
Lattice="3.520000004905587 0.0 0.0 0.0 3.520000004905587 0.0 0.0 0.0 3.520000004905587" Properties=species:S:1:pos:R:3:forces:R:3:magmoms:R:1 energy=-23353.295232273595 free_energy=-23353.295232273595 stress="0.19387724386790103 -0.005732976149305377 -0.004528353358163696 -0.005732976149305377 0.17927394699815374 0.012253731532451883 -0.004528353358163696 0.012253731532451883 0.1917700721410183" pbc="T T T"
Ni       3.50238898       3.45113898       0.09957871       0.08930315       1.18638902      -1.33307945       0.73370000
Ni       0.04118357       1.74663185       1.64412573      -0.48192783      -0.29630293       1.50429872       0.73060000
Ni       1.69560226       3.49138812       1.80440997       0.74395333       0.68001128      -0.18018497       0.72070000
Ni       1.80082520       1.87084106       3.49188559      -0.35132891      -1.57009737       0.00896569       0.73130000
4
Lattice="3.520000004905587 0.0 0.0 0.0 3.520000004905587 0.0 0.0 0.0 3.520000004905587" Properties=species:S:1:pos:R:3:forces:R:3:magmoms:R:1 energy=-23353.276931121316 free_energy=-23353.276931121316 stress="0.19250092560271706 -0.006015768694786807 -0.004879089567169886 -0.006015768694786807 0.17672238698551446 0.012911132384934689 -0.004879089567169886 0.012911132384934689 0.19020185893425762" pbc="T T T"
Ni       3.50152024       3.44975245       0.10240216       0.09592272       1.20983362      -1.35858737       0.73380000
Ni       0.04250345       1.74513123       1.64072450      -0.49213383      -0.29458132       1.53470845       0.73080000
Ni       1.69346679       3.49131656       1.80672575       0.76242850       0.68770479      -0.19718124       0.72040000
Ni       1.80250952       1.87379978       3.49014760      -0.36621739      -1.60295709       0.02106016       0.73140000
4