4
Lattice="3.520000004905587 0.0 0.0 0.0 3.520000004905587 0.0 0.0 0.0 3.520000004905587" Properties=species:S:1:pos:R:3:forces:R:3:magmoms:R:1 energy=-23353.626593866513 stress="0.2113360109209186 -9.181576151994517e-07 0.0 -9.181576151994517e-07 0.21135712854606817 -5.5089456911967096e-06 0.0 -5.5089456911967096e-06 0.2113552922308378" free_energy=-23353.626593866513 pbc="T T T"
Ni       0.00000000       0.00000000       0.00000000      -0.00017895       0.00020337      -0.00073791       0.72510000
Ni       0.00000000       1.76000000       1.76000000      -0.00057001       0.00020517       0.00003394       0.72520000
Ni       1.76000000       0.00000000       1.76000000       0.00105364       0.00121510       0.00074125       0.72520000
Ni       1.76000000       1.76000000       0.00000000      -0.00030442      -0.00162339      -0.00003728       0.72510000
4
Lattice="3.520000004905587 0.0 0.0 0.0 3.520000004905587 0.0 0.0 0.0 3.520000004905587" Properties=species:S:1:pos:R:3:forces:R:3:magmoms:R:1 energy=-23353.626399033004 stress="0.21140303642682814 3.672630460797807e-06 -2.7544728455983548e-06 3.672630460797807e-06 0.21140303642682814 -9.181576151994517e-07 -2.7544728455983548e-06 -9.181576151994517e-07 0.21140854537251935" free_energy=-23353.626399033004 pbc="T T T"
Ni       0.00105906       3.51970466       3.51941906      -0.00657971       0.00863839       0.00174809       0.72520000
Ni       3.51780157       1.75861123       1.75772423       0.02500346       0.00795911       0.02608847       0.72520000
Ni       1.76231582       3.51862138       1.76110421      -0.02616715       0.01911538      -0.00667356       0.72510000
Ni       1.75882355       1.76306275       0.00175250       0.00774339      -0.03571288      -0.02116301       0.72510000
4
Lattice="3.520000004905587 0.0 0.0 0.0 3.520000004905587 0.0 0.0 0.0 3.520000004905587" Properties=species:S:1:pos:R:3:forces:R:3:magmoms:R:1 energy=-23353.625815076703 stress="0.21221927854674047 1.8363152303989035e-05 -1.0099733767193969e-05 1.8363152303989035e-05 0.21221652407389485 -1.1017891382393419e-05 -1.0099733767193969e-05 -1.1017891382393419e-05 0.21224039617189006" free_energy=-23353.625815076703 pbc="T T T"
Ni       0.00211712       3.51941063       3.51883838      -0.01329955       0.01910561       0.00313083       0.72510000
Ni       3.51560699       1.75722368       1.75545248       0.05481772       0.01609176       0.05663626       0.72520000
Ni       1.76462762       3.51724569       1.76220740      -0.05729858       0.04176680      -0.01414364       0.72510000
Ni       1.75764829       1.76612001       0.00350175       0.01578040      -0.07696417      -0.04562345       0.72520000
4
Lattice="3.520000004905587 0.0 0.0 0.0 3.520000004905587 0.0 0.0 0.0 3.520000004905587" Properties=species:S:1:pos:R:3:forces:R:3:magmoms:R:1 energy=-23353.624844310587 stress="0.21137457354075698 3.580814699277862e-05 -2.754472845598355e-05 3.580814699277862e-05 0.2113736553831418 -1.8363152303989035e-05 -2.754472845598355e-05 -1.8363152303989035e-05 0.21141680879105615" free_energy=-23353.624844310587 pbc="T T T"
Ni       0.00317401       3.51911931       3.51825770      -0.01897937       0.02627513       0.00454931       0.72510000
Ni       3.51341901       1.75583745       1.75318755       0.07684436       0.02334844       0.07946097       0.72510000
Ni       1.76693252       3.51587528       1.76330933      -0.08025724       0.05816967      -0.02002581       0.72510000
Ni       1.75647447       1.76916797       0.00524543       0.02239199      -0.10779324      -0.06398447       0.72520000
4
Lattice="3.520000004905587 0.0 0.0 0.0 3.520000004905587 0.0 0.0 0.0 3.520000004905587" Properties=species:S:1:pos:R:3:forces:R:3:magmoms:R:1 energy=-23353.623488503385 stress="0.21177213578813833 6.702550590955998e-05 -4.774419599037149e-05 6.702550590955998e-05 0.21177305394575352 -3.397183176237971e-05 -4.774419599037149e-05 -3.397183176237971e-05 0.2118529336582759" free_energy=-23353.623488503385 pbc="T T T"
Ni       0.00423075       3.51883126       3.51767619      -0.02581233       0.03673335       0.00613877       0.72490000
Ni       3.51123710       1.75445118       1.75092890       0.10608192       0.03154024       0.10964109       0.72520000
Ni       1.76923113       3.51451022       1.76441107      -0.11099915       0.08072133      -0.02750335       0.72510000
Ni       1.75530102       1.77220735       0.00698385       0.03072957      -0.14899491      -0.08827651       0.72530000
4
Lattice="3.520000004905587 0.0 0.0 0.0 3.520000004905587 0.0 0.0 0.0 3.520000004905587" Properties=species:S:1:pos:R:3:forces:R:3:magmoms:R:1 energy=-23353.621748471443 stress="0.2110275099622116 9.640654959594242e-05 -7.712523967675394e-05 9.640654959594242e-05 0.21102842811982678 -4.866235360557094e-05 -7.712523967675394e-05 -4.866235360557094e-05 0.2111441159793419" free_energy=-23353.621748471443 pbc="T T T"
Ni       0.00528809       3.51854762       3.51709311      -0.03174464       0.04386045       0.00769454       0.72490000
Ni       3.50906209       1.75306376       1.74867735       0.12810881       0.03914685       0.13244035       0.72520000
Ni       1.77152260       3.51315168       1.76551334      -0.13385986       0.09702418      -0.03346831       0.72510000
Ni       1.75412722       1.77523695       0.00871620       0.03749543      -0.18003147      -0.10666659       0.72530000
4
Lattice="3.520000004905587 0.0 0.0 0.0 3.520000004905587 0.0 0.0 0.0 3.520000004905587" Properties=species:S:1:pos:R:3:forces:R:3:magmoms:R:1 energy=-23353.61962516716 stress="0.2113754916983722 0.00014506890320151335 -0.0001083425985935353 0.00014506890320151335 0.21137824617121775 -7.069813637035779e-05 -0.0001083425985935353 -7.069813637035779e-05 0.21154626901479925" free_energy=-23353.61962516716 pbc="T T T"
Ni       0.00634692       3.51826902       3.51650771      -0.03901212       0.05427599       0.00943338       0.72470000
Ni       3.50689368       1.75167400       1.74643261       0.15749447       0.04801329       0.16287476       0.72520000
Ni       1.77380728       3.51179989       1.76661711      -0.16462156       0.11950308      -0.04107672       0.72510000
Ni       1.75295212       1.77825710       0.01044258       0.04613922      -0.22179236      -0.13123116       0.72540000
4
Lattice="3.520000004905587 0.0 0.0 0.0 3.520000004905587 0.0 0.0 0.0 3.520000004905587" Properties=species:S:1:pos:R:3:forces:R:3:magmoms:R:1 energy=-23353.617119134764 stress="0.21058495799168545 0.00018730415350068813 -0.00014782337604711171 0.00018730415350068813 0.21058954877976147 -9.273391913514463e-05 -0.00014782337604711171 -9.273391913514463e-05 0.21080990660740928" free_energy=-23353.617119134764 pbc="T T T"
Ni       0.00740794       3.51799662       3.51591922      -0.04484827       0.06147148       0.01099738       0.72550000
Ni       3.50473274       1.75028088       1.74419557       0.17979210       0.05566618       0.18592110       0.72620000
Ni       1.77608430       3.51045603       1.76772309      -0.18798775       0.13614711      -0.04721497       0.72610000
Ni       1.75177503       1.78126648       0.01216211       0.05304417      -0.25328451      -0.14970351       0.72650000
4
Lattice="3.520000004905587 0.0 0.0 0.0 3.520000004905587 0.0 0.0 0.0 3.520000004905587" Properties=species:S:1:pos:R:3:forces:R:3:magmoms:R:1 energy=-23353.614230510306 stress="0.21087325948285807 0.0002469843984886525 -0.0001900586263462865 0.0002469843984886525 0.21088244105901005 -0.00011936048997592872 -0.0001900586263462865 -0.00011936048997592872 0.21116982439256748" free_energy=-23353.614230510306 pbc="T T T"
Ni       0.00847209       3.51773110       3.51532687      -0.05235743       0.07190553       0.01275653       0.72530000
Ni       3.50257902       1.74888315       1.74196599       0.20956342       0.06500417       0.21676457       0.72630000
Ni       1.77835393       3.50912041       1.76883228      -0.21906750       0.15875945      -0.05501415       0.72610000
Ni       1.75059497       1.78426535       0.01387488       0.06186177      -0.29566889      -0.17450720       0.72660000
4
Lattice="3.520000004905587 0.0 0.0 0.0 3.520000004905587 0.0 0.0 0.0 3.520000004905587" Properties=species:S:1:pos:R:3:forces:R:3:magmoms:R:1 energy=-23353.610960246195 stress="0.21008823472186255 0.00030482832824621796 -0.00023872097995185744 0.00030482832824621796 0.21010384340132093 -0.00014415074558631391 -0.00023872097995185744 -0.00014415074558631391 0.21045641592555753" free_energy=-23353.610960246195 pbc="T T T"
Ni       0.00954011       3.51747367       3.51472983      -0.05856253       0.07876832       0.01464423       0.72510000
Ni       3.50043341       1.74747976       1.73974477       0.23201044       0.07339625       0.23988752       0.72630000
Ni       1.78061528       3.50779425       1.76994542      -0.24263835       0.17522634      -0.06151544       0.72610000
Ni       1.74941120       1.78725233       0.01557998       0.06919044      -0.32739091      -0.19301657       0.72670000
4
Lattice="3.520000004905587 0.0 0.0 0.0 3.520000004905587 0.0 0.0 0.0 3.520000004905587" Properties=species:S:1:pos:R:3:forces:R:3:magmoms:R:1 energy=-23353.60730820637 stress="0.21019290468999527 0.00037552646461657573 -0.0002901378064030267 0.00037552646461657573 0.21021494047276007 -0.00017353178927269637 -0.0002901378064030267 -0.00017353178927269637 0.2106455563942886" free_energy=-23353.60730820637 pbc="T T T"
Ni       0.01061297       3.51722503       3.51412731      -0.06606424       0.08954330       0.01620412       0.72480000
Ni       3.49829569       1.74606946       1.73753167       0.26197304       0.08260980       0.27095339       0.72640000
Ni       1.78286862       3.50647786       1.77106354      -0.27393022       0.19819863      -0.06917116       0.72610000
Ni       1.74822273       1.79022766       0.01727749       0.07802141      -0.37035198      -0.21798635       0.72690000
4
Lattice="3.520000004905587 0.0 0.0 0.0 3.520000004905587 0.0 0.0 0.0 3.520000004905587" Properties=species:S:1:pos:R:3:forces:R:3:magmoms:R:1 energy=-23353.60327588745 stress="0.2098329869048371 0.00044806091621733243 -0.0003452272633149938 0.00044806091621733243 0.2098651224213691 -0.00020474914818947773 -0.0003452272633149938 -0.00020474914818947773 0.21037745437065036" free_energy=-23353.60327588745 pbc="T T T"
Ni       0.01169148       3.51698649       3.51351839      -0.07307744       0.09813129       0.01799181       0.72450000
Ni       3.49616675       1.74465108       1.73532762       0.28801883       0.09196553       0.29813072       0.72640000
Ni       1.78511303       3.50517256       1.77218749      -0.30141917       0.21772384      -0.07635688       0.72610000
Ni       1.74702874       1.79318988       0.01896649       0.08647803      -0.40782067      -0.23976565       0.72700000
4
Lattice="3.520000004905587 0.0 0.0 0.0 3.520000004905587 0.0 0.0 0.0 3.520000004905587" Properties=species:S:1:pos:R:3:forces:R:3:magmoms:R:1 energy=-23353.598864922125 stress="0.20920221262319508 0.0005279406287396847 -0.00040582566591815765 0.0005279406287396847 0.20925087497680064 -0.00023229387664546128 -0.00040582566591815765 -0.00023229387664546128 0.2098449229538347" free_energy=-23353.598864922125 pbc="T T T"
Ni       0.01277658       3.51675912       3.51290218      -0.08071773       0.10409188       0.02081668       0.72430000
Ni       3.49404694       1.74322340       1.73313302       0.31126366       0.10245615       0.32204635       0.72650000
Ni       1.78734817       3.50387918       1.77331828      -0.32559139       0.23386343      -0.08426302       0.72600000
Ni       1.74582831       1.79613831       0.02064652       0.09504546      -0.44041146      -0.25860001       0.72720000
4
Lattice="3.520000004905587 0.0 0.0 0.0 3.520000004905587 0.0 0.0 0.0 3.520000004905587" Properties=species:S:1:pos:R:3:forces:R:3:magmoms:R:1 energy=-23353.594075174336 stress="0.20884780378372808 0.0006142474445684332 -0.0004710148565973187 0.0006142474445684332 0.20891299297440727 -0.00026351123556224264 -0.0004710148565973187 -0.00026351123556224264 0.20959702039773084" free_energy=-23353.594075174336 pbc="T T T"
Ni       0.01386929       3.51654357       3.51227780      -0.08775895       0.11480850       0.02222102       0.72400000
Ni       3.49193590       1.74178514       1.73094746       0.34112780       0.11182550       0.35287800       0.72650000
Ni       1.78957446       3.50259792       1.77445698      -0.35698353       0.25657681      -0.09176601       0.72600000
Ni       1.74462035       1.79907339       0.02231776       0.10361469      -0.48321107      -0.28333300       0.72730000
4
Lattice="3.520000004905587 0.0 0.0 0.0 3.520000004905587 0.0 0.0 0.0 3.520000004905587" Properties=species:S:1:pos:R:3:forces:R:3:magmoms:R:1 energy=-23353.58891031762 stress="0.20856225676540105 0.0007060632060883783 -0.0005371222048916793 0.0007060632060883783 0.2086476454236146 -0.0002928922792486251 -0.0005371222048916793 -0.0002928922792486251 0.20942532492368854" free_energy=-23353.58891031762 pbc="T T T"
Ni       0.01497054       3.51634134       3.51164423      -0.09580599       0.12269664       0.02479932       0.72450000
Ni       3.48983478       1.74033507       1.72877213       0.36776005       0.12256654       0.38031964       0.72740000
Ni       1.79179072       3.50133029       1.77560453      -0.38505355       0.27594108      -0.09997940       0.72680000
Ni       1.74340397       1.80199331       0.02397911       0.11309949      -0.52120426      -0.30513955       0.72840000
4
Lattice="3.520000004905587 0.0 0.0 0.0 3.520000004905587 0.0 0.0 0.0 3.520000004905587" Properties=species:S:1:pos:R:3:forces:R:3:magmoms:R:1 energy=-23353.583373753405 stress="0.20815367662663728 0.0008043060709147198 -0.0006050658684164386 0.0008043060709147198 0.20825926475238524 -0.0003241096381654065 -0.0006050658684164386 -0.0003241096381654065 0.20913702343251592" free_energy=-23353.583373753405 pbc="T T T"
Ni       0.01608126       3.51615354       3.51100055      -0.10385740       0.13064598       0.02743007       0.72420000
Ni       3.48774403       1.73887196       1.72660747       0.39403390       0.13329884       0.40754016       0.72750000
Ni       1.79399647       3.50007725       1.77676193      -0.41288986       0.29517447      -0.10818508       0.72680000
Ni       1.74217824       1.80489726       0.02563005       0.12271310      -0.55911929      -0.32678490       0.72860000
4
Lattice="3.520000004905587 0.0 0.0 0.0 3.520000004905587 0.0 0.0 0.0 3.520000004905587" Properties=species:S:1:pos:R:3:forces:R:3:magmoms:R:1 energy=-23353.577468883104 stress="0.20733927082195538 0.0009043852509714599 -0.0006766821624019959 0.0009043852509714599 0.2074696492033137 -0.0003553269970821878 -0.0006766821624019959 -0.0003553269970821878 0.20844656890588592" free_energy=-23353.577468883104 pbc="T T T"
Ni       0.01720261       3.51598135       3.51034568      -0.11236106       0.13602318       0.03069769       0.72390000
Ni       3.48566385       1.73739433       1.72445369       0.41758315       0.14485390       0.43176150       0.72760000
Ni       1.79619151       3.49883963       1.77793040      -0.43743695       0.31112174      -0.11683941       0.72680000
Ni       1.74094204       1.80778470       0.02727024       0.13221461      -0.59199882      -0.34562003       0.72870000
4
Lattice="3.520000004905587 0.0 0.0 0.0 3.520000004905587 0.0 0.0 0.0 3.520000004905587" Properties=species:S:1:pos:R:3:forces:R:3:magmoms:R:1 energy=-23353.571198427864 stress="0.20718777481544745 0.0010136460071801946 -0.0007556437173091488 0.0010136460071801946 0.20734845239810737 -0.00038470804076857026 -0.0007556437173091488 -0.00038470804076857026 0.20843096022642754" free_energy=-23353.571198427864 pbc="T T T"
Ni       0.01833559       3.51582565       3.50967863      -0.12118843       0.14490300       0.03360792       0.72360000
Ni       3.48359426       1.73590087       1.72231078       0.44746888       0.15689026       0.46243167       0.72760000
Ni       1.79837586       3.49761795       1.77911104      -0.46880827       0.33260330      -0.12613086       0.72680000
Ni       1.73969429       1.81065554       0.02889955       0.14252782      -0.63439657      -0.36990898       0.72890000
4
Lattice="3.520000004905587 0.0 0.0 0.0 3.520000004905587 0.0 0.0 0.0 3.520000004905587" Properties=species:S:1:pos:R:3:forces:R:3:magmoms:R:1 energy=-23353.56456987081 stress="0.20670298759462216 0.0011256612362345278 -0.0008336871146011021 0.0011256612362345278 0.20689212806335325 -0.0004150072420701522 -0.0008336871146011021 -0.0004150072420701522 0.20808481480549734" free_energy=-23353.56456987081 pbc="T T T"
Ni       0.01948114       3.51568796       3.50899838      -0.12941776       0.15199076       0.03654643       0.72320000
Ni       3.48153651       1.73439040       1.72018000       0.47381112       0.16838900       0.48933570       0.72770000
Ni       1.80054825       3.49641380       1.78030480      -0.49662092       0.35096304      -0.13496903       0.72680000
Ni       1.73843410       1.81350785       0.03051683       0.15222756      -0.67134255      -0.39091310       0.72910000
4
Lattice="3.520000004905587 0.0 0.0 0.0 3.520000004905587 0.0 0.0 0.0 3.520000004905587" Properties=species:S:1:pos:R:3:forces:R:3:magmoms:R:1 energy=-23353.55758974268 stress="0.20562231608153242 0.0012385946229040603 -0.0009080578814322578 0.0012385946229040603 0.20584542838202588 -0.00044163381291093624 -0.0009080578814322578 -0.00044163381291093624 0.2071464577227635" free_energy=-23353.55758974268 pbc="T T T"
Ni       0.02064047       3.51556961       3.50830374      -0.13781576       0.15768550       0.03937824       0.72280000
Ni       3.47949116       1.73286142       1.71806185       0.49660343       0.17886599       0.51281758       0.72770000
Ni       1.80270811       3.49522825       1.78151289      -0.52060262       0.36698821      -0.14265612       0.72680000
Ni       1.73716027       1.81634074       0.03212152       0.16181495      -0.70353996      -0.40953997       0.72930000
4
Lattice="3.520000004905587 0.0 0.0 0.0 3.520000004905587 0.0 0.0 0.0 3.520000004905587" Properties=species:S:1:pos:R:3:forces:R:3:magmoms:R:1 energy=-23353.550262533347 stress="0.20554243636901007 0.001361627743340787 -0.0009925283820306074 0.001361627743340787 0.2057995205012659 -0.00047193301421251816 -0.0009925283820306074 -0.00047193301421251816 0.20721807401674908" free_energy=-23353.550262533347 pbc="T T T"
Ni       0.02181494       3.51547181       3.50759338      -0.14830432       0.16474806       0.04362236       0.72250000
Ni       3.47745808       1.73131201       1.71595619       0.52620969       0.19292247       0.54292597       0.72780000
Ni       1.80485559       3.49406199       1.78273692      -0.55165024       0.38708909      -0.15353600       0.72670000
Ni       1.73587139       1.81915420       0.03371351       0.17374512      -0.74475963      -0.43301208       0.72950000
4
Lattice="3.520000004905587 0.0 0.0 0.0 3.520000004905587 0.0 0.0 0.0 3.520000004905587" Properties=species:S:1:pos:R:3:forces:R:3:magmoms:R:1 energy=-23353.54259899131 stress="0.2051412014911679 0.0014864971790079123 -0.001073326252168159 0.0014864971790079123 0.20543593008564692 -0.0004976414274381028 -0.001073326252168159 -0.0004976414274381028 0.20697659856395162" free_energy=-23353.54259899131 pbc="T T T"
Ni       0.02300544       3.51539614       3.50686623      -0.15799815       0.17061918       0.04753173       0.72280000
Ni       3.47543875       1.72974106       1.71386445       0.55207961       0.20538126       0.56915482       0.72860000
Ni       1.80698919       3.49291673       1.78397781      -0.57873964       0.40461373      -0.16303031       0.72740000
Ni       1.73456662       1.82194609       0.03529151       0.18465817      -0.78061417      -0.45365624       0.73040000
4
Lattice="3.520000004905587 0.0 0.0 0.0 3.520000004905587 0.0 0.0 0.0 3.520000004905587" Properties=species:S:1:pos:R:3:forces:R:3:magmoms:R:1 energy=-23353.53460850449 stress="0.20390352502587902 0.0016141210875206362 -0.0011605512256121068 0.0016141210875206362 0.20423773439781162 -0.0005215135254332886 -0.0011605512256121068 -0.0005215135254332886 0.20589959968132263" free_energy=-23353.53460850449 pbc="T T T"
Ni       0.02421316       3.51534408       3.50612104      -0.16621359       0.17581229       0.05084742       0.72250000
Ni       3.47343392       1.72814689       1.71178731       0.57483130       0.21613207       0.59187412       0.72860000
Ni       1.80910818       3.49179377       1.78523690      -0.60270798       0.41969942      -0.17126067       0.72740000
Ni       1.73324475       1.82471526       0.03685476       0.19409052      -0.81164405      -0.47146113       0.73070000
4
Lattice="3.520000004905587 0.0 0.0 0.0 3.520000004905587 0.0 0.0 0.0 3.520000004905587" Properties=species:S:1:pos:R:3:forces:R:3:magmoms:R:1 energy=-23353.52629733152 stress="0.20374743823129512 0.0017481720993397561 -0.0012514488295168526 0.0017481720993397561 0.20411929206545093 -0.0005463037810436738 -0.0012514488295168526 -0.0005463037810436738 0.20591337204555063" free_energy=-23353.52629733152 pbc="T T T"
Ni       0.02543976       3.51531717       3.50535623      -0.17710221       0.18143041       0.05567595       0.72210000
Ni       3.47144375       1.72652730       1.70972479       0.60279591       0.23063721       0.62019765       0.72870000
Ni       1.81121242       3.49069407       1.78651599      -0.63204683       0.43774780      -0.18257249       0.72730000
Ni       1.73190408       1.82746148       0.03840300       0.20635314      -0.84981542      -0.49330111       0.73090000
4
Lattice="3.520000004905587 0.0 0.0 0.0 3.520000004905587 0.0 0.0 0.0 3.520000004905587" Properties=species:S:1:pos:R:3:forces:R:3:magmoms:R:1 energy=-23353.517679078075 stress="0.20255750596199665 0.0018803867959284772 -0.0013368374877304016 0.0018803867959284772 0.20297067688883638 -0.0005674214061932611 -0.0013368374877304016 -0.0005674214061932611 0.20489788972314005" free_energy=-23353.517679078075 pbc="T T T"
Ni       0.02668630       3.51531713       3.50457056      -0.18671634       0.18552463       0.05958197       0.72180000
Ni       3.46946977       1.72488088       1.70767835       0.62450733       0.24199789       0.64219241       0.72880000
Ni       1.81330036       3.48961942       1.78781620      -0.65463398       0.45185955      -0.19120317       0.72730000
Ni       1.73054358       1.83018257       0.03993490       0.21684298      -0.87938207      -0.51057121       0.73100000
4
Lattice="3.520000004905587 0.0 0.0 0.0 3.520000004905587 0.0 0.0 0.0 3.520000004905587" Properties=species:S:1:pos:R:3:forces:R:3:magmoms:R:1 energy=-23353.508762859983 stress="0.2022765497317456 0.0020208649110539934 -0.001426816934019948 0.0020208649110539934 0.20272736512080855 -0.0005885390313428485 -0.001426816934019948 -0.0005885390313428485 0.2047987287006985" free_energy=-23353.508762859983 pbc="T T T"
Ni       0.02795420       3.51534565       3.50376249      -0.19920702       0.19002149       0.06574876       0.72140000
Ni       3.46751257       1.72320555       1.70564851       0.65212612       0.25748338       0.66978137       0.72880000
Ni       1.81537146       3.48857112       1.78913923      -0.68352263       0.46919522      -0.20366248       0.72730000
Ni       1.72916178       1.83287769       0.04144978       0.23060353      -0.91670009      -0.53186766       0.73130000
4
Lattice="3.520000004905587 0.0 0.0 0.0 3.520000004905587 0.0 0.0 0.0 3.520000004905587" Properties=species:S:1:pos:R:3:forces:R:3:magmoms:R:1 energy=-23353.49956309927 stress="0.20137583711123494 0.00215950671094911 -0.0015177145379246936 0.00215950671094911 0.20186888775059705 -0.0006041477108012392 -0.0015177145379246936 -0.0006041477108012392 0.20408715654891893" free_energy=-23353.49956309927 pbc="T T T"
Ni       0.02924453       3.51540461       3.50293070      -0.20873218       0.19360073       0.07022120       0.72100000
Ni       3.46557377       1.72149969       1.70363675       0.67344725       0.26918962       0.69064690       0.72890000
Ni       1.81742408       3.48755113       1.79048632      -0.70566035       0.48229396      -0.21262946       0.72720000
Ni       1.72775761       1.83554458       0.04294624       0.24094502      -0.94508456      -0.54823864       0.73150000
4
Lattice="3.520000004905587 0.0 0.0 0.0 3.520000004905587 0.0 0.0 0.0 3.520000004905587" Properties=species:S:1:pos:R:3:forces:R:3:magmoms:R:1 energy=-23353.49009027232 stress="0.20065783785614896 0.0023018211413050253 -0.0016086121418294396 0.0023018211413050253 0.20118945111534947 -0.000617920075029231 -0.0016086121418294396 -0.000617920075029231 0.20356380670825525" free_energy=-23353.49009027232 pbc="T T T"
Ni       0.03055891       3.51549592       3.50207352      -0.22026384       0.19669248       0.07574110       0.72070000
Ni       3.46365423       1.71976101       1.70164371       0.69667485       0.28310443       0.71392927       0.72900000
Ni       1.81945746       3.48656097       1.79185931      -0.72980815       0.49617740      -0.22358519       0.72720000
Ni       1.72632941       1.83818211       0.04442347       0.25339713      -0.97597430      -0.56608518       0.73170000
4
Lattice="3.520000004905587 0.0 0.0 0.0 3.520000004905587 0.0 0.0 0.0 3.520000004905587" Properties=species:S:1:pos:R:3:forces:R:3:magmoms:R:1 energy=-23353.48035716848 stress="0.20034382795175074 0.0024459718868913394 -0.0016985915881189855 0.0024459718868913394 0.20091124935794402 -0.000628019808796425 -0.0016985915881189855 -0.000628019808796425 0.2034536277944313" free_energy=-23353.48035716848 pbc="T T T"
Ni       0.03189872       3.51562163       3.50118929      -0.23423315       0.19918928       0.08300472       0.72090000
Ni       3.46175524       1.71798740       1.69967056       0.72201488       0.29982740       0.73929192       0.72960000
Ni       1.82147032       3.48560247       1.79325989      -0.75607299       0.51076276      -0.23688011       0.72780000
Ni       1.72487572       1.84078851       0.04588027       0.26829127      -1.00977943      -0.58541654       0.73250000
4
Lattice="3.520000004905587 0.0 0.0 0.0 3.520000004905587 0.0 0.0 0.0 3.520000004905587" Properties=species:S:1:pos:R:3:forces:R:3:magmoms:R:1 energy=-23353.470381066985 stress="0.1996138926476672 0.002590122632477653 -0.0017885710344085319 0.002590122632477653 0.20021804035846844 -0.0006335287544876216 -0.0017885710344085319 -0.0006335287544876216 0.20293395058422842" free_energy=-23353.470381066985 pbc="T T T"
Ni       0.03326489       3.51578385       3.50027665      -0.24695112       0.20086229       0.08980760       0.72060000
Ni       3.45987893       1.71617733       1.69771929       0.74435905       0.31508612       0.76116224       0.72970000
Ni       1.82346057       3.48467793       1.79468924      -0.77914093       0.52300198      -0.24875269       0.72770000
Ni       1.72339562       1.84336090       0.04731482       0.28173300      -1.03895039      -0.60221741       0.73270000
4
Lattice="3.520000004905587 0.0 0.0 0.0 3.520000004905587 0.0 0.0 0.0 3.520000004905587" Properties=species:S:1:pos:R:3:forces:R:3:magmoms:R:1 energy=-23353.460175437467 stress="0.19888579365881404 0.002734273378063967 -0.0018767141654676793 0.002734273378063967 0.19952207688614726 -0.0006353650697180206 -0.0018767141654676793 -0.0006353650697180206 0.20242253679256234" free_energy=-23353.460175437467 pbc="T T T"
Ni       0.03465882       3.51598478       3.49933390      -0.26004652       0.20212085       0.09707406       0.72030000
Ni       3.45802684       1.71432861       1.69579122       0.76589795       0.33044409       0.78214707       0.72980000
Ni       1.82542673       3.48378937       1.79614912      -0.80140206       0.53452798      -0.26089318       0.72770000
Ni       1.72188761       1.84589725       0.04872577       0.29555062      -1.06709292      -0.61832794       0.73290000
4
Lattice="3.520000004905587 0.0 0.0 0.0 3.520000004905587 0.0 0.0 0.0 3.520000004905587" Properties=species:S:1:pos:R:3:forces:R:3:magmoms:R:1 energy=-23353.449754021673 stress="0.19831010883408398 0.0028756696508046827 -0.0019630209812964276 0.0028756696508046827 0.198977609420334 -0.0006289379664116244 -0.0019630209812964276 -0.0006289379664116244 0.2020727187411713" free_energy=-23353.449754021673 pbc="T T T"
Ni       0.03608199       3.51622681       3.49835925      -0.27351781       0.20275308       0.10433845       0.72000000
Ni       3.45620059       1.71243889       1.69388772       0.78671180       0.34626820       0.80258219       0.72990000
Ni       1.82736725       3.48293892       1.79764138      -0.82263088       0.54498697      -0.27328487       0.72760000
Ni       1.72035017       1.84839539       0.05011165       0.30943689      -1.09400799      -0.63363578       0.73300000
4
Lattice="3.520000004905587 0.0 0.0 0.0 3.520000004905587 0.0 0.0 0.0 3.520000004905587" Properties=species:S:1:pos:R:3:forces:R:3:magmoms:R:1 energy=-23353.43913260221 stress="0.19709171367871428 0.0030170659235453983 -0.0020456551666643784 0.0030170659235453983 0.19778951346626591 -0.0006170019174140315 -0.0020456551666643784 -0.0006170019174140315 0.2010875356200623" free_energy=-23353.43913260221 pbc="T T T"
Ni       0.03753569       3.51651239       3.49735092      -0.28564570       0.20330073       0.11124186       0.71970000
Ni       3.45440223       1.71050603       1.69201060       0.80506125       0.36042675       0.82005541       0.72990000
Ni       1.82928019       3.48212894       1.79916774      -0.84164136       0.55399663      -0.28415112       0.72750000