CRYSTAL
PRIMVEC
  1.912954   1.912954   0.000000
  1.912954   0.000000   1.912954
  0.000000   1.912954   1.912954
PRIMCOORD
1 1
29   0.000000   0.000000   0.000000
