12
Lattice="7.9999999630420415 0.0 0.0 0.0 7.9999999630420415 0.0 0.0 0.0 7.9999999630420415" Properties=species:S:1:pos:R:3:forces:R:3 energy=-1662.9920960640638 free_energy=-1662.9920960640638 pbc="T T T"
N        1.69407028       7.51698111       7.25257461      -0.05673422      -0.42039542       0.67332050
N        2.54671603       0.67792958       7.21063731       0.14587565       0.03519197      -0.05247827
H        0.70499875       7.82495508       7.32016194       0.09705786      -0.09060876      -0.11621335
H        1.92310990       7.06972353       0.15227612      -0.12070969      -0.11298996      -0.36922610
H        2.21438693       1.37734722       7.89298482       0.07773268       0.19485388      -0.55816644
H        2.47217376       1.01867813       6.24701710       0.04518560       0.34170192       0.37847641
N        6.88446205       0.77350054       6.95966576      -0.32686872       0.01918223      -0.31148709
N        5.83653401       7.83712575       6.53472800       0.05684658       0.21157659       0.26470895
H        6.53327454       1.35150697       7.73200153       0.06033582      -0.06755959       0.01307894
H        6.99477496       1.42087845       6.16595996       0.03517423      -0.19645182       0.24800295
H        4.94273145       0.16012520       6.92810502      -0.18478467      -0.16476966      -0.16924904
H        6.02280527       6.92472576       6.96745378       0.17088940       0.25026835      -0.00076747
12
Lattice="7.9999999630420415 0.0 0.0 0.0 7.9999999630420415 0.0 0.0 0.0 7.9999999630420415" Properties=species:S:1:pos:R:3:forces:R:3 energy=-1662.9874306723 free_energy=-1662.9874306723 pbc="T T T"
N        1.62161185       7.51267802       7.17204426       0.91880454       0.27850729       0.11280407
N        2.61319756       0.60656429       7.13753960      -0.39187983       0.39393568       0.53730143
H        0.67440341       7.87694641       7.33532478      -0.16417394       0.21492237      -0.08101212
H        1.88454678       6.95721906       7.99519396      -0.02480446       0.07003454      -0.24886839
H        2.37997883       1.36577357       7.81472759      -0.01400043      -0.54710170      -0.13834360
H        2.55474200       1.09593990       6.24094395      -0.16059522      -0.45886761      -0.22584390
N        6.84948481       0.81687087       7.01242267       0.06623136      -0.10589525      -0.14841642
N        5.84830148       7.85318911       6.62480990      -0.23615094      -0.15267571       0.19620628
H        6.52545445       1.39686374       7.77767963      -0.10754153       0.36276029       0.24246223
H        7.06103259       1.41874765       6.21304278      -0.22242768      -0.05797375       0.06626916
H        4.89225967       0.12792545       6.92007746       0.19669942       0.20962410      -0.21577752
H        6.04014458       7.02216740       7.18449478       0.13983870      -0.20726974      -0.09678095
12
Lattice="7.9999999630420415 0.0 0.0 0.0 7.9999999630420415 0.0 0.0 0.0 7.9999999630420415" Properties=species:S:1:pos:R:3:forces:R:3 energy=-1662.9981349504283 free_energy=-1662.9981349504283 pbc="T T T"
N        1.63282344       7.51201128       7.18597259       0.69996510       0.33831938       0.01120435
N        2.60187133       0.62098057       7.14991193      -0.30602427       0.03304022       0.57582015
H        0.67723709       7.86182536       7.34092059      -0.12880610       0.23463090      -0.15587570
H        1.88795364       6.98795983       0.02300281       0.08383005      -0.16397596      -0.02582030
H        2.35390174       1.36261240       7.82904671      -0.03279468      -0.27126887      -0.09668171
H        2.54319999       1.08465726       6.24724481      -0.14352232      -0.22636198      -0.35512231
N        6.85732883       0.81053551       7.00140406      -0.08158933      -0.34472786       0.04281555
N        5.84752357       7.85092721       6.60698088      -0.34400615      -0.07720380       0.20814880
H        6.52452447       1.38268357       7.76973820      -0.06488050       0.35390721       0.22458020
H        7.05386809       1.41678849       6.20734338      -0.16499078       0.05360442      -0.07485176
H        4.90096665       0.12370355       6.93270452       0.15672314       0.27681962      -0.29142426
H        6.02225021       7.00528678       7.14931274       0.32609636      -0.20678329      -0.06279328
12
Lattice="7.9999999630420415 0.0 0.0 0.0 7.9999999630420415 0.0 0.0 0.0 7.9999999630420415" Properties=species:S:1:pos:R:3:forces:R:3 energy=-1662.9494083416816 free_energy=-1662.9494083416816 pbc="T T T"
N        1.54328120       7.53600161       6.86358069       0.63836712       0.70018904      -0.25924176
N        2.74456795       0.38891475       6.91506704      -0.36616674      -0.50796231       0.38575238
H        0.71867393       0.02439026       7.25690459       0.23688216      -0.16778608      -0.09517993
H        1.77027518       6.71592523       7.41997573      -0.09073834      -0.02794789       0.14104763
H        2.66642465       1.09986178       7.63791898      -0.18248610       0.13163380       0.37676920
H        2.83595363       0.90949269       6.05305268      -0.31156911      -0.01328412      -0.58130920
N        6.73820216       1.01566138       7.24870885      -0.38442543       0.22894902      -0.23536213
N        5.90404445       7.84401341       6.95307632       0.45280161       0.44482013       0.15655833
H        6.20105913       1.68564944       7.81971785       0.15703218      -0.09394502       0.06229860
H        6.85503290       1.49234654       6.35266553       0.15981874      -0.01140001      -0.08170349
H        4.90856978       0.11972202       6.94504412       0.01202582      -0.39744755       0.14476519
H        6.07407257       7.24717328       7.76089017      -0.32154190      -0.28581900      -0.01439458
12
Lattice="7.9999999630420415 0.0 0.0 0.0 7.9999999630420415 0.0 0.0 0.0 7.9999999630420415" Properties=species:S:1:pos:R:3:forces:R:3 energy=-1662.9200661704026 free_energy=-1662.9200661704026 pbc="T T T"
N        1.61783268       7.46416226       6.34925500      -0.73201750       0.14662230       0.35805620
N        2.77500549       0.22506936       6.65028567       1.00601893       0.83868871      -0.06934985
H        0.75613526       7.95250402       6.65418584       0.17234156      -0.17619307      -0.18079406
H        1.66940737       6.63730234       6.93752810      -0.05048438      -0.28945916       0.00371576
H        2.68552816       0.89323800       7.42804166      -0.39749872      -0.28749407       0.12681838
H        2.97913161       0.82542570       5.84768311      -0.00475191      -0.20772765      -0.11888858
N        6.45083843       1.28820811       7.51020120      -0.35866375      -0.25436746       0.29169860
N        6.13211547       7.84815779       7.49121554      -0.15597777       0.60951780       0.21359928
H        5.64983451       1.82414222       7.89009086       0.35444354      -0.13338472      -0.19871594
H        6.57226128       1.59257488       6.54386641      -0.07562257      -0.13104990      -0.06767863
H        5.11466712       7.73209312       7.33972908       0.11809257      -0.06400761      -0.20929602
H        6.28322233       7.55023627       0.46137309       0.12411923      -0.05114541      -0.14916512
12
Lattice="7.9999999630420415 0.0 0.0 0.0 7.9999999630420415 0.0 0.0 0.0 7.9999999630420415" Properties=species:S:1:pos:R:3:forces:R:3 energy=-1662.9302078531691 free_energy=-1662.9302078531691 pbc="T T T"
N        1.92704974       7.52493196       7.55281832      -0.18283732       0.19850459      -0.02773629
N        2.35663476       0.89117220       7.44351768       0.77516138       0.01266911      -0.48956992
H        0.91553983       7.50854754       7.36697245      -0.10502905      -0.23796922       0.00665530
H        2.07221215       7.30773684       0.53241863      -0.08191252      -0.38641495       0.27459073
H        1.62838801       1.53889893       7.73329013      -0.25396997       0.25147060      -0.01939280
H        2.54160304       1.04789827       6.44965720      -0.08892237       0.17536235       0.12669059
N        6.86183310       0.64892160       6.74952611       0.47714970      -0.45642480       0.20693344
N        5.80440686       7.80230170       6.24796748       0.51598749       0.49075906       0.23627487
H        6.72096284       0.97278827       7.71325324      -0.22350625      -0.02616457      -0.22477124
H        6.98116390       1.44982771       6.14119995      -0.17319054       0.18555934      -0.14184828
H        4.95009728       0.04917414       6.74835224      -0.35381285      -0.36630147       0.00304213
H        6.08129378       6.84053524       6.46724902      -0.30511770       0.15894997       0.04913172
12
Lattice="7.9999999630420415 0.0 0.0 0.0 7.9999999630420415 0.0 0.0 0.0 7.9999999630420415" Properties=species:S:1:pos:R:3:forces:R:3 energy=-1662.9322046245172 free_energy=-1662.9322046245172 pbc="T T T"
N        1.57526966       7.49930894       6.54886569       0.75153911       0.05974421      -0.54956842
N        2.79523176       0.27639659       6.73007615      -0.55372409       0.00762718       0.05710086
H        0.72826117       7.98891090       6.83071292      -0.10908728       0.11760663       0.24694546
H        1.66721815       6.62433748       7.05862303       0.00228622       0.08868609       0.12772289
H        2.67491881       0.92067741       7.52959863       0.14072316      -0.03458648      -0.46864320
H        2.94882763       0.82179671       5.86202080      -0.25359562      -0.19129496       0.62957266
N        6.54465858       1.19596513       7.43266837       0.17549579       0.08927307      -0.25610399
N        6.03372390       7.86902065       7.32640734       0.41925359      -0.21936369      -0.16135189
H        5.88455856       1.85969981       7.84849283      -0.16348334      -0.05204196       0.17298305
H        6.67884761       1.51059999       6.47373440       0.15714197       0.17970494      -0.09325237
H        5.04424498       7.82428226       7.06794825      -0.20723271      -0.14393755       0.34657134
H        6.27166789       7.35155549       0.17194630      -0.35931681       0.09858252      -0.05197614
12
Lattice="7.9999999630420415 0.0 0.0 0.0 7.9999999630420415 0.0 0.0 0.0 7.9999999630420415" Properties=species:S:1:pos:R:3:forces:R:3 energy=-1662.8775082463212 free_energy=-1662.8775082463212 pbc="T T T"
N        5.16448766       6.85928357       7.64216906      -0.24752781      -0.17322679      -0.13306050
N        4.28757718       6.25998238       6.64186167       0.35775024      -0.44429871      -0.31268574
H        5.80509321       6.14077708       7.99920144       0.09002692       0.12794452       0.06587526
H        4.54245379       7.08267063       0.42495842       0.10618168       0.02020887      -0.03028348
H        4.10427297       5.27643672       6.90807037      -0.12411023       0.21832420      -0.14561597
H        4.82960368       6.19155997       5.75738196      -0.26289941       0.22340033       0.59780617
N        3.51807180       1.91461688       6.18164336      -0.32446268       0.18550741       0.16840546
N        3.68443753       2.26408450       7.56053651      -0.09696530       0.01907579       0.57275797
H        3.43833595       0.90088782       6.10186880       0.26888083      -0.12174071      -0.40297337
H        4.32695076       2.27808454       5.67835948       0.00731916      -0.36940350      -0.00649075
H        4.16442752       1.50859084       0.07713371       0.04646652       0.24799833      -0.19677398
H        2.74757511       2.32192022       7.97875163       0.17933984       0.06621053      -0.17696080
12
Lattice="7.9999999630420415 0.0 0.0 0.0 7.9999999630420415 0.0 0.0 0.0 7.9999999630420415" Properties=species:S:1:pos:R:3:forces:R:3 energy=-1662.8741379803726 free_energy=-1662.8741379803726 pbc="T T T"
N        5.17008406       6.85472474       7.63669082      -0.14602555      -0.18690532      -0.20721626
N        4.28660712       6.26714536       6.63804422       0.30096382      -0.57617188      -0.32545615
H        5.80014483       6.12801884       7.99771721       0.06982833       0.14432733       0.06481211
H        4.54804894       7.08882157       0.41201815       0.05656298       0.05535071       0.08934121
H        4.08371571       5.28836696       6.91217596      -0.13656132       0.25457572      -0.14174157
H        4.82917997       6.17036972       5.75736003      -0.22404027       0.28258635       0.56382390
N        3.51669959       1.91260432       6.18896140      -0.34157697      -0.06922592       0.01117967
N        3.68372720       2.26552670       7.56306401      -0.13318829       0.02972992       0.65880328
H        3.45771265       0.89270804       6.10858802       0.24728870       0.06935011      -0.38057263
H        4.31278607       2.28608461       5.67223299       0.02291727      -0.33689319       0.03853647
H        4.16433297       1.51091834       0.08076874       0.04829354       0.27042606      -0.18859067
H        2.74498521       2.32140329       7.98101575       0.23553799       0.06285010      -0.18291908
12
Lattice="7.9999999630420415 0.0 0.0 0.0 7.9999999630420415 0.0 0.0 0.0 7.9999999630420415" Properties=species:S:1:pos:R:3:forces:R:3 energy=-1662.8305328261833 free_energy=-1662.8305328261833 pbc="T T T"
N        3.76949554       6.86676074       0.38195990       0.33162757       0.15170923       0.20299374
N        4.67223395       5.88100012       7.84889776       0.04346553      -0.08841098       0.29096197
H        3.68661071       7.66994854       7.74724333       0.04191001       0.05042216      -0.03053905
H        4.24122300       7.23541350       1.21904404      -0.27031962      -0.09804928      -0.15732323
H        5.38425648       6.28289153       7.24000574       0.04512723       0.09968990      -0.16049854
H        4.13310790       5.20997395       7.31197238      -0.14175957      -0.04107363      -0.17588582
N        3.99519915       1.95057810       5.30337366      -0.45253807      -0.26420939      -0.56470887
N        4.31305514       2.04748228       6.69631358      -0.44670475      -0.34350324      -0.27057415
H        3.62478670       2.82580642       4.92126301       0.14386608       0.12700427       0.04908930
H        3.23627129       1.26991061       5.16394618       0.31477990       0.06164014       0.26841700
H        3.70492288       2.72432578       7.16000410       0.21360314       0.11294188       0.23945584
H        5.27966666       2.34768020       6.73190721       0.17694281       0.23183894       0.30861183
12
Lattice="7.9999999630420415 0.0 0.0 0.0 7.9999999630420415 0.0 0.0 0.0 7.9999999630420415" Properties=species:S:1:pos:R:3:forces:R:3 energy=-1662.8678741919207 free_energy=-1662.8678741919207 pbc="T T T"
N        2.02645188       7.56187826       7.69779269       0.10056921       0.06913079      -0.07854720
N        2.28392662       0.98906275       7.52693679       0.35881107      -0.74915313      -0.02713697
H        1.05602827       7.32721912       7.44591828       0.11354043       0.21562402      -0.11983243
H        2.13216918       7.32796010       0.69017704       0.06150259       0.27615011      -0.14126515
H        1.40481980       1.48971337       7.58038493      -0.35066428       0.33154324      -0.02572749
H        2.63395850       1.11505786       6.56766921      -0.20595976      -0.11523427       0.25495445
N        6.89728703       0.57039454       6.66535560      -0.94480842       0.58103743       0.40762321
N        5.79033576       7.80433888       6.12378665      -0.01111256      -0.82572726      -0.31506889
H        6.64015589       0.81750703       7.63623168       0.33776608      -0.09929086      -0.03457671
H        6.79365123       1.47316421       6.18041167       0.39114192      -0.16024735      -0.00478174
H        4.90804788       7.94256542       6.62089022      -0.10268112       0.41358123       0.23187160
H        5.98589237       6.81379100       6.29041490       0.25189509       0.06258605      -0.14751293
12
Lattice="7.9999999630420415 0.0 0.0 0.0 7.9999999630420415 0.0 0.0 0.0 7.9999999630420415" Properties=species:S:1:pos:R:3:forces:R:3 energy=-1662.8341418720256 free_energy=-1662.8341418720256 pbc="T T T"
N        4.95786238       6.91451194       7.79733703      -0.27558241       0.47464570       0.08671431
N        4.37542124       6.11823955       6.77980799       0.03552082      -0.36695273      -0.65092927
H        5.93335305       6.69195332       0.00527651      -0.02342584      -0.14001739       0.08941114
H        4.38062410       6.80824854       0.63631100       0.32869677      -0.07022505      -0.07854360
H        4.72186110       5.14489621       6.77363997      -0.18914552       0.24506830       0.07576861
H        4.57330047       6.52862889       5.85340058       0.01823658      -0.12656204       0.52018122
N        3.57553057       1.99636322       6.03577974      -0.17520294      -0.14363982       0.18651631
N        3.71908303       2.24084870       7.45083203       0.28192069      -0.07746862       0.69868006
H        3.09701357       1.09407691       5.93348213       0.21361059      -0.13649884      -0.39610364
H        4.53544557       1.88167960       5.69810000      -0.19941193      -0.04358534      -0.13507650
H        4.12392500       1.40342842       7.91327206      -0.14338657       0.21552632      -0.18055186
H        2.77992870       2.34404342       7.84942016       0.12817052       0.16970978      -0.21606677
12
Lattice="7.9999999630420415 0.0 0.0 0.0 7.9999999630420415 0.0 0.0 0.0 7.9999999630420415" Properties=species:S:1:pos:R:3:forces:R:3 energy=-1662.8611733886437 free_energy=-1662.8611733886437 pbc="T T T"
N        4.24037238       6.94087293       0.21376394       0.04282661       0.24551618      -0.15927984
N        4.65320061       5.88273059       7.32894632      -0.00193553       0.04934641      -0.38099198
H        4.69071434       7.83754025       7.97596075      -0.07771416      -0.14538740       0.10038409
H        4.51570076       6.67412566       1.15551605       0.12440411       0.02856856       0.09483668
H        5.54623909       6.09667633       6.85975384      -0.06244901      -0.04657631       0.30796571
H        3.96848378       5.87734970       6.57115794      -0.07814765      -0.15913663      -0.01826846
N        3.77106100       2.04940839       5.59174707      -0.22561019       0.19321095       0.42526483
N        4.05739599       2.07177066       7.00699887       0.47679514       0.11408010       0.57675989
H        2.86146917       1.60202792       5.47976953      -0.01278738      -0.00902431      -0.37230165
H        4.47660680       1.44822261       5.17203133      -0.05955318      -0.21476399      -0.12697676
H        3.34041946       1.59834550       7.55835548      -0.09305542      -0.11795064      -0.15688100
H        4.08688889       3.03893311       7.34646192      -0.03277359       0.06211734      -0.29051152
12
Lattice="7.9999999630420415 0.0 0.0 0.0 7.9999999630420415 0.0 0.0 0.0 7.9999999630420415" Properties=species:S:1:pos:R:3:forces:R:3 energy=-1662.8634738390358 free_energy=-1662.8634738390358 pbc="T T T"
N        1.65535507       7.40108468       6.11427089       0.28716600       0.20930425      -0.02429950
N        2.80257570       0.19768719       6.56197313      -0.55918023       0.78147189      -0.31627191
H        0.76004014       7.83728567       6.35404392      -0.01464423       0.21813599       0.05530906
H        1.66527784       6.54509510       6.65721675       0.17160262      -0.28641806       0.15327297
H        2.49982072       0.85716524       7.30913898       0.14472663      -0.43410686      -0.25159299
H        3.01166531       0.82807280       5.75965034      -0.03788495      -0.50845390       0.48424131
N        6.30758012       1.34993754       7.61559454      -0.31837893       0.11996896       0.19953046
N        6.23533838       7.94354030       7.75052516       0.57292123      -1.10259779       0.18323918
H        5.42712636       1.78448648       7.90359093      -0.12002295       0.20189253       0.08027061
H        6.38490794       1.52889190       6.62118725       0.14696708       0.17848855      -0.31437341
H        5.34993263       7.50388549       7.49843567      -0.40755122       0.31256953      -0.20741192
H        6.43601622       7.65606858       0.70939016       0.13427869       0.30974465      -0.04191387
12
Lattice="7.9999999630420415 0.0 0.0 0.0 7.9999999630420415 0.0 0.0 0.0 7.9999999630420415" Properties=species:S:1:pos:R:3:forces:R:3 energy=-1662.836144765935 free_energy=-1662.836144765935 pbc="T T T"
N        3.75830653       6.87050991       0.38642082       0.42095669      -0.09580342       0.05190440
N        4.67217247       5.87866849       7.86246761       0.23121237       0.10576464       0.08882596
H        3.67820271       7.66903786       7.74798955       0.06287530       0.09915356      -0.03940884
H        4.21628885       7.23477206       1.23107707      -0.21536717      -0.06626530      -0.15609579
H        5.38762181       6.26842182       7.23364689      -0.19221721       0.10460096       0.14124458
H        4.14224191       5.20826401       7.31605733      -0.25744019      -0.07073645      -0.12063462
N        3.99899687       1.94888355       5.29250868      -0.56699355      -0.27318074      -0.45096507
N        4.31546990       2.04586893       6.68945446      -0.42337379      -0.02388786      -0.13195004
H        3.65471912       2.83053937       4.89218125       0.23097917       0.07646229       0.15413866
H        3.20385073       1.30248471       5.18052921       0.37945755       0.07407374       0.19267127
H        3.74410594       2.76615568       7.14903709       0.30191976      -0.08911752       0.08932449
H        5.29908066       2.29950743       6.74272085       0.02799109       0.15893634       0.18094524
12
Lattice="7.9999999630420415 0.0 0.0 0.0 7.9999999630420415 0.0 0.0 0.0 7.9999999630420415" Properties=species:S:1:pos:R:3:forces:R:3 energy=-1662.8546193907828 free_energy=-1662.8546193907828 pbc="T T T"
N        4.14829793       6.93921476       0.24731172       0.23617074      -0.44111723       0.11093667
N        4.68548419       5.87096759       7.39682711      -0.08872286       0.65977747       0.39334227
H        4.45834344       7.87915204       7.97252343       0.16263822      -0.10162619      -0.29866963
H        4.52774427       6.77763607       1.18431691      -0.04521028      -0.01775681      -0.10028408
H        5.53554529       6.17948743       6.89401373      -0.49030860      -0.15336785       0.09822694
H        3.93625730       5.67516592       6.73426695       0.23713490       0.01102618      -0.29100723
N        3.79882193       2.03640576       5.54728099       0.47856097      -0.05024116       0.07610440
N        4.12395370       2.06830945       6.96795137      -0.42707309      -0.01914623      -0.23117997
H        2.81894581       1.81901545       5.34485821       0.12987902      -0.04711598       0.23051045
H        4.39687155       1.31993741       5.12183991      -0.35036603       0.07234699       0.08838861
H        3.35288462       1.67014689       7.52885934       0.23196878       0.25537688      -0.22156816
H        4.21823561       3.06187499       7.21292344      -0.07467178      -0.16815606       0.14519945
12
Lattice="7.9999999630420415 0.0 0.0 0.0 7.9999999630420415 0.0 0.0 0.0 7.9999999630420415" Properties=species:S:1:pos:R:3:forces:R:3 energy=-1662.7882554514701 free_energy=-1662.7882554514701 pbc="T T T"
N        5.17724879       5.41920862       6.62235364       0.11235901       0.25720133       0.34978316
N        4.71850312       6.69464965       6.11368713      -0.20086383       0.48962340      -0.18928256
H        5.33112571       5.53748280       7.63207378       0.09334210      -0.28637204      -0.16943930
H        6.10034476       5.25950793       6.20062592      -0.14422089       0.08366061       0.17908788
H        4.65131039       7.41329967       6.84517464       0.37497431      -0.08955435       0.05587599
H        3.74372563       6.58669063       5.84711702      -0.24222929      -0.29516367      -0.23104139
N        3.25758122       1.78467450       7.28250959       0.23818108       0.11596987      -0.08920854
N        3.60261851       2.90231784       0.11690714      -0.47555227       0.07692046       0.28300287
H        3.33098983       2.04497827       6.29143981      -0.17151521      -0.09811484      -0.03734090
H        2.28470226       1.55606101       7.48327756      -0.00973677      -0.04886767      -0.04822721
H        3.19273840       3.78293707       7.76715333       0.36688562      -0.26598705      -0.02926764
H        4.61413361       2.99978752       0.09413565       0.05837638       0.06068395      -0.07394210
12
Lattice="7.9999999630420415 0.0 0.0 0.0 7.9999999630420415 0.0 0.0 0.0 7.9999999630420415" Properties=species:S:1:pos:R:3:forces:R:3 energy=-1662.7967217293321 free_energy=-1662.7967217293321 pbc="T T T"
N        5.18681652       5.42595763       6.62283821      -0.19642560       0.41096410       0.48759789
N        4.70777298       6.69951300       6.12268857       0.04845912       0.28768125      -0.34925711
H        5.29871615       5.53523569       7.64062135       0.14631557      -0.33380838      -0.23431929
H        6.12076541       5.28887161       6.22796959      -0.01346307       0.09644465       0.11735080
H        4.64709902       7.41999856       6.84541418       0.32834839       0.02033331       0.19810504
H        3.74016942       6.58876077       5.84306978      -0.32829722      -0.33483476      -0.21428705
N        3.25585697       1.77862407       7.27210265       0.44980293       0.23102930      -0.01608276
N        3.59676560       2.89615629       0.11826900      -0.49272492      -0.08583217       0.24946206
H        3.37126650       2.05310463       6.28804422      -0.32118118      -0.22012628       0.00641902
H        2.28139422       1.54698472       7.46273597       0.00983370       0.03054753      -0.15574200
H        3.24276684       3.77588724       7.72643143       0.15787165      -0.05620020      -0.05962337
H        4.60806997       2.97609899       0.12362473       0.21146064      -0.04619810      -0.02962322
12
Lattice="7.9999999630420415 0.0 0.0 0.0 7.9999999630420415 0.0 0.0 0.0 7.9999999630420415" Properties=species:S:1:pos:R:3:forces:R:3 energy=-1662.8129520952957 free_energy=-1662.8129520952957 pbc="T T T"
N        5.30987167       5.72429216       6.78870575      -0.03633303       0.24147235       0.18089202
N        4.53417446       6.81143309       6.22541124      -0.45617901       0.32760919       0.33613060
H        5.01565238       5.55120310       7.76079710       0.07399661       0.00047180      -0.07185693
H        6.25739030       6.10366445       6.84432680       0.07298925      -0.21821518       0.02414523
H        4.21284540       7.48222589       6.95258398       0.31411167      -0.16330670      -0.21856151
H        3.65470647       6.41194626       5.89731065       0.02365518      -0.25098698      -0.24652766
N        3.30853138       1.61615445       7.06177410      -0.09619397      -0.13708634      -0.17641547
N        3.54439813       2.75450203       7.95778195       0.51693983      -0.18588742      -0.20434537
H        3.94611283       1.67962386       6.26415703       0.06763801      -0.00520597       0.04678199
H        2.38033348       1.74516856       6.65496401      -0.08172791       0.12578891       0.04623075
H        4.44158793       3.17061352       7.64791820      -0.47106647       0.03598619       0.23658006
H        3.75327384       2.29758146       0.85143093       0.07216958       0.22936040       0.04694654
12
Lattice="7.9999999630420415 0.0 0.0 0.0 7.9999999630420415 0.0 0.0 0.0 7.9999999630420415" Properties=species:S:1:pos:R:3:forces:R:3 energy=-1662.8092245438768 free_energy=-1662.8092245438768 pbc="T T T"
N        5.19987127       5.43798887       6.62580855      -0.48794010       0.51240003       0.32554254
N        4.69206125       6.70791119       6.13424787       0.01990162      -0.02560536      -0.50460265
H        5.25578352       5.52081995       7.64613718       0.18858733      -0.30406226      -0.05993447
H        6.15105829       5.33566756       6.27210737       0.07801807       0.10967400       0.04537894
H        4.65117079       7.43081971       6.85248101       0.14608828       0.05395820       0.19288673
H        3.72544671       6.58105456       5.83083628       0.02814844      -0.22046978       0.02135893
N        3.25554350       1.77078314       7.25666392       0.60263110       0.25681824       0.11462466
N        3.58591819       2.88661213       0.12139894      -0.17921900      -0.05088599       0.06493244
H        3.41966547       2.05737440       6.28331159      -0.44497311      -0.31170101       0.00928888
H        2.27707541       1.53494823       7.42670244       0.06724232       0.12951598      -0.24541874
H        3.32144920       3.76417275       7.66412636      -0.02903341       0.05978740      -0.01420509
H        4.60532329       2.93877471       0.16666306       0.01054846      -0.20942972       0.05014782
12
Lattice="7.9999999630420415 0.0 0.0 0.0 7.9999999630420415 0.0 0.0 0.0 7.9999999630420415" Properties=species:S:1:pos:R:3:forces:R:3 energy=-1662.820773599417 free_energy=-1662.820773599417 pbc="T T T"
N        5.32126606       6.65179080       7.44681328       0.08900876       0.07747839      -0.11995328