18
Lattice="7.9999999630420415 0.0 0.0 0.0 7.9999999630420415 0.0 0.0 0.0 7.9999999630420415" Properties=species:S:1:pos:R:3:forces:R:3 energy=-2494.386247939902 free_energy=-2494.386247939902 pbc="T T T"
N        3.69560465       1.54927021       4.54433869       0.26567749      -0.43088732       0.32942568
N        5.03614634       1.95971082       4.20997905      -0.10071242       0.18309983      -0.49796226
H        3.27960980       0.97732144       3.80446969       0.00064560       0.06859318      -0.08424014
H        3.13141848       2.37182736       4.71854119      -0.07340448       0.23930774      -0.09538818
H        5.05791683       2.35778806       3.25352677       0.02772241      -0.06888397       0.22010957
H        5.58065485       1.09589656       4.12442089      -0.10427006       0.01480133       0.14267463
N        6.44620521       3.93416361       6.16629297      -0.15118112       1.07560455       0.96151185
N        5.38144239       4.09100341       7.18638833       0.03521871      -0.94124667      -0.75102669
H        6.14963456       3.24541105       5.47904260       0.03526577      -0.49877113      -0.17925037
H        7.28470610       3.65452501       6.68347709      -0.22795375      -0.17321676      -0.28494559
H        4.80934977       3.21984146       7.10670339       0.16696615       0.67758930       0.31352058
H        4.77530060       4.84260283       6.84008001       0.07900229      -0.07110900       0.01705361
N        4.24503662       5.82091096       2.71969016       0.56458803       0.90355070       1.04752194
N        4.54350326       7.22361335       2.32518697      -0.33989264      -0.58234330      -0.50364183
H        4.74725804       5.72990262       3.62609049      -0.49811190      -0.01577192      -0.38713460
H        4.75396005       5.18391161       2.11803807       0.21223737      -0.31780789      -0.62606748
H        3.87588003       7.42472371       1.57083630      -0.13880769       0.01248733       0.22233486
H        5.43609812       7.25813057       1.82074294       0.24701077      -0.07499625       0.15550469
18
Lattice="7.9999999630420415 0.0 0.0 0.0 7.9999999630420415 0.0 0.0 0.0 7.9999999630420415" Properties=species:S:1:pos:R:3:forces:R:3 energy=-2494.3762537428356 free_energy=-2494.3762537428356 pbc="T T T"
N        0.58063640       4.60238592       6.99550990      -0.43285653      -0.29849376      -0.55514720
N        1.00138833       3.81494710       5.85000544       0.04178325       0.08021276       0.51529792
H        1.06215768       5.50994441       7.07094939       0.21314419      -0.32746727       0.20123562
H        0.63483968       4.01895371       7.83673182       0.18555472       0.26858464      -0.33323425
H        2.01142165       3.85434085       5.72006205       0.40424864      -0.00228108       0.12945607
H        0.62472515       4.22201596       4.99607481      -0.39568429       0.14452505       0.06784190
N        0.99094734       0.52419739       7.13194644       0.46898104       0.19666857      -0.70341706
N        1.74607227       7.47374742       6.49413038       0.06665662      -0.56133301       0.06995586
H        0.15613532       0.08321755       7.50345374      -0.39937922      -0.05439580       0.17072254
H        0.71683882       1.16516598       6.37399141      -0.25218203       0.35405762       0.58199054
H        2.70928164       7.79449967       6.35669198      -0.21621898       0.01719297      -0.11253076
H        1.33766898       7.22989511       5.58452003       0.26414923       0.10410165      -0.05768347
N        5.01420777       7.73106925       7.75705238      -0.56176959       0.50064469       0.00272923
N        4.10659803       0.19597147       0.82546351       0.62428904      -0.33728168      -0.43871222
H        5.05536473       0.52497651       7.09319396       0.08769699      -0.56165569       0.23636151
H        4.61233734       6.90797876       7.26681546       0.15708823       0.43039547       0.06508773
H        4.18002144       7.46902237       1.54305937      -0.20751682       0.19732445      -0.01884644
H        3.13761375       0.23634803       0.48480183      -0.04798476      -0.15079906       0.17889273
18
Lattice="7.9999999630420415 0.0 0.0 0.0 7.9999999630420415 0.0 0.0 0.0 7.9999999630420415" Properties=species:S:1:pos:R:3:forces:R:3 energy=-2494.3502022442076 free_energy=-2494.3502022442076 pbc="T T T"
N        4.35750309       1.41307599       3.88777108       0.11710321      -0.49426913      -0.34039426
N        4.20987447       1.35586001       5.29681366      -0.11545076       0.03021766       0.18322504
H        5.18632035       0.93362531       3.48998784      -0.36279011       0.22240659       0.46616980
H        4.35089630       2.37960125       3.58979697       0.20273920       0.39013379      -0.20302562
H        5.09084202       1.30662470       5.82468295      -0.22175945      -0.11499516      -0.20727128
H        3.59720768       0.56994242       5.54013648       0.43860629       0.10505296       0.04128960
N        4.90657419       6.37582757       6.21118476      -0.32976481       1.33813681      -0.66572777
N        5.21775199       5.05253449       6.49826800      -0.51131734      -1.17181035       0.92623786
H        5.07275068       6.58169375       5.20921905      -0.01218883       0.23340809       0.49829650
H        5.42307508       7.02449520       6.82562477      -0.11372786      -0.43467404      -0.45971119
H        6.01308022       4.72727817       5.98171583       0.84976914      -0.29526960      -0.45827266
H        4.43869687       4.45168117       6.20459143       0.07040452       0.17201503       0.17837517
N        5.05998954       5.79126025       2.70535034       0.38376029       0.43877290      -0.22567035
N        5.33702830       4.38440559       2.47755643       0.65106683       0.29659063       0.30508582
H        4.09518339       5.95795461       2.43416094      -0.19240028       0.01650083      -0.03453557
H        5.64344304       6.40361730       2.09257215      -0.41878437      -0.46104456       0.29265633
H        6.22249364       4.24711130       2.98822296      -0.33443650      -0.28913495      -0.19218379
H        5.56231628       4.21821637       1.48978130      -0.10082941       0.01796276      -0.10454363
18
Lattice="7.9999999630420415 0.0 0.0 0.0 7.9999999630420415 0.0 0.0 0.0 7.9999999630420415" Properties=species:S:1:pos:R:3:forces:R:3 energy=-2494.3212238891306 free_energy=-2494.3212238891306 pbc="T T T"
N        0.39421205       4.43624022       7.01197435      -0.44556884      -0.07456996       0.29354439
N        1.09195218       3.35785757       6.38746926       0.97939927      -0.33414982      -0.37318560
H        1.03293815       4.94627796       7.61542360       0.07000651       0.31004573       0.27532041
H        7.67731697       4.01464076       7.61464773       0.14008964       0.18853154      -0.12197673
H        1.93854318       3.09155256       6.93053711      -0.43235825       0.08745016      -0.11462389
H        1.48285215       3.74308750       5.51647835      -0.22625605      -0.16556490       0.10248212
N        1.50382353       7.89818978       6.71358754       0.38457507       0.29810398      -0.25065325
N        1.72501622       0.19565506       5.30160974      -0.08414269       0.24432011       0.22806842
H        0.77696040       7.20258591       6.65204122      -0.58432742      -0.37118888       0.56295538
H        1.12920609       0.75320510       7.15260909      -0.20914510      -0.36043215      -0.01995330
H        2.72474532       0.37371564       5.20533268      -0.00359415       0.24154846      -0.12259406
H        1.20351883       1.06539231       5.13925101       0.36498738      -0.01527081      -0.45622709
N        4.76543408       7.63859942       0.60963543       0.92732003      -0.14938084       0.08446151
N        3.91933707       0.77051026       0.73038296      -0.53309433       0.18383465       0.18265503
H        5.53227428       7.86566349       7.97231304      -0.14886482       0.04901705       0.04655342
H        4.34102731       6.77948813       0.25662701      -0.47385637       0.13696704       0.00208182
H        3.60963090       0.83981389       1.71061823       0.14879205      -0.12820549      -0.31811591
H        3.06991766       0.65779933       0.16060845       0.12603753      -0.14105560      -0.00079293
18
Lattice="7.9999999630420415 0.0 0.0 0.0 7.9999999630420415 0.0 0.0 0.0 7.9999999630420415" Properties=species:S:1:pos:R:3:forces:R:3 energy=-2494.329596968003 free_energy=-2494.329596968003 pbc="T T T"
N        7.90144079       4.74629185       0.23270530       0.34980244      -0.45143146       0.29847345
N        1.32058750       4.89902239       0.37699783       0.38070813      -0.04979635      -0.08349426
H        7.63775576       4.03948892       7.54700175      -0.02456046      -0.02367755      -0.16835943
H        7.48299659       5.63196380       7.98949207       0.01766322       0.36884557      -0.22524612
H        1.86966186       4.88062035       7.49789098      -0.59686334       0.10219467      -0.01521245
H        1.66873497       4.08130977       0.88283751      -0.24263552       0.06916833       0.21934184
N        0.95116482       7.98580841       1.93873149      -0.58914386       0.92807003       0.40168242
N        0.24352827       1.26550833       1.78972181       0.61476182      -0.41434202      -0.31772253
H        0.94913982       7.54823550       1.02953809       0.00357332      -0.41632202      -0.27377698
H        0.43371096       7.39755455       2.59889174       0.05508897      -0.22126271      -0.14734478
H        0.66762831       1.85269834       2.50070154      -0.35497833       0.29542335       0.14423066
H        7.22330521       1.19938635       1.92803474       0.35551440      -0.20590114       0.26806142
N        5.85240416       6.18597710       3.40149159      -0.18234058      -0.04623203       0.89168737
N        5.34286137       7.48863279       3.13662471       0.34936407      -0.02910360      -0.48947402
H        6.26858254       5.77085011       2.57509792      -0.13614223      -0.08560976      -0.19080928
H        5.14865988       5.57150479       3.84274076       0.33514458       0.02201867      -0.51824724
H        5.24140530       7.96433400       4.02556968      -0.06533199       0.15327092       0.13254654
H        4.44186727       7.47595593       2.65739724      -0.26962490       0.00468712       0.07366416
18
Lattice="7.9999999630420415 0.0 0.0 0.0 7.9999999630420415 0.0 0.0 0.0 7.9999999630420415" Properties=species:S:1:pos:R:3:forces:R:3 energy=-2494.340520297771 free_energy=-2494.340520297771 pbc="T T T"
N        3.72799092       1.58720574       4.63779851      -0.67500277       0.60186954      -0.13201895
N        5.03721098       2.02764473       4.20730538       0.77282219      -0.80911665      -0.62226096
H        3.34159364       1.08879779       3.83496025      -0.38811676      -0.47211059      -0.01005224
H        3.14195327       2.44073030       4.69786257       0.34970320      -0.34080307       0.19233343
H        4.96401483       2.44742761       3.26663832       0.00986969       0.17482807       0.08652508
H        5.50852267       1.11999680       3.97753942      -0.12266862       0.74904514       0.40632480
N        6.44375120       3.87074053       6.20906621       0.23373899      -0.52333828      -0.94583995
N        5.41273479       4.08422695       7.16880094      -0.21714843      -0.77553650       0.95732558
H        6.07841402       3.22031325       5.48138127      -0.01403360       0.39043307      -0.07747351
H        7.16686086       3.28759343       6.63690525       0.11837256       0.34857011       0.45916303
H        4.82162019       3.24162433       7.24048071       0.00100093       0.18564676       0.05728649
H        4.79869522       4.81480921       6.84385413      -0.12176436       0.48491186      -0.31545379
N        4.31004130       5.82333813       2.69853908      -0.38953550       0.54520268       0.62384167
N        4.46906587       7.19947010       2.24743509       0.74962621      -0.44270823      -0.09094969
H        4.73325038       5.79879337       3.63216284      -0.05722967      -0.18086785      -0.21474882
H        4.82022359       5.18292904       2.09873842       0.27979619      -0.20757261      -0.24605329
H        3.74898587       7.36597506       1.54631507      -0.01400017      -0.03360355      -0.15114641
H        5.38765643       7.25521527       1.76964778      -0.51542982       0.30514984       0.02319778
18
Lattice="7.9999999630420415 0.0 0.0 0.0 7.9999999630420415 0.0 0.0 0.0 7.9999999630420415" Properties=species:S:1:pos:R:3:forces:R:3 energy=-2494.310412534207 free_energy=-2494.310412534207 pbc="T T T"
N        0.39958795       4.44416667       7.01004745      -0.37656017      -0.01879142       0.33621570
N        1.09079991       3.38587904       6.37244010       0.73121043      -0.43424004      -0.85480875
H        1.01760676       4.99206145       7.61660210      -0.09686580      -0.06181523       0.11603800
H        7.71005609       3.95011381       7.57251436      -0.20103481       0.51996345       0.38204973
H        1.94574775       3.10713531       6.86136741       0.06892279       0.04042725       0.26863554
H        1.41772009       3.74676135       5.47584134      -0.03200561      -0.05496401      -0.16961388
N        1.50588287       7.91240592       6.74751058      -0.62159273      -0.55368115      -0.14582012
N        1.72519134       0.16406941       5.32942798       0.02795098       0.39564650       0.06256214
H        0.76055032       7.19188713       6.72587356       0.26865714       0.41076381       0.46215399
H        1.10180656       0.77814289       7.12112138      -0.26678024      -0.18630085       0.28009906
H        2.70977905       0.40713280       5.28385006       0.33801162       0.09582630      -0.33094031
H        1.21439784       1.03587385       5.14108718       0.11752538      -0.09399696      -0.42491799
N        4.78648559       7.62608436       0.58210813      -0.24073419       0.14823438       0.44491603
N        3.90899385       0.76504271       0.73260236       0.39503689      -0.23604604       0.14045294
H        5.51487609       7.92082555       7.94799262       0.21724279      -0.23652118      -0.40374573
H        4.30657316       6.78286660       0.23504864       0.11307095       0.39306228      -0.10776085
H        3.59136309       0.74729061       1.70341131      -0.19200921       0.04228976      -0.14286155
H        3.10828974       0.66896072       0.10543637      -0.25004647      -0.16985685       0.08734629
18
Lattice="7.9999999630420415 0.0 0.0 0.0 7.9999999630420415 0.0 0.0 0.0 7.9999999630420415" Properties=species:S:1:pos:R:3:forces:R:3 energy=-2494.354650489128 free_energy=-2494.354650489128 pbc="T T T"
N        4.36048288       1.41445812       3.88305993       0.11165761      -0.57104561      -0.15181696
N        4.20633366       1.36261796       5.29912372       0.16674607       0.39430155      -0.06351165
H        5.20210754       0.94237097       3.50190613      -0.41387433       0.26172159       0.44471729
H        4.34555955       2.38087749       3.58430337       0.22878319       0.38342964      -0.19791761
H        5.08730299       1.30216421       5.82376655      -0.20752274      -0.09585715      -0.18711589
H        3.59079771       0.59282706       5.54269559       0.17350627      -0.23708168       0.10170230
N        4.90341239       6.37396787       6.21345366      -0.30473306       1.53141049      -0.54042223
N        5.21833831       5.05453893       6.50301482      -0.20087412      -1.25034726       0.77942195
H        5.05792174       6.58665646       5.21267590      -0.00989540       0.15844732       0.41370978
H        5.43053760       7.02985848       6.81587911      -0.18200042      -0.52055197      -0.46555016
H        6.01125271       4.72574576       5.97209673       0.59338824      -0.22957329      -0.31308169
H        4.43512493       4.45157903       6.22879208       0.05791693       0.14950245       0.14164439
N        5.07008831       5.78971038       2.70296623      -0.01279561       0.41235584      -0.34843307
N        5.33224359       4.37552402       2.47403875       0.53416005       0.46134692       0.46495521
H        4.09762907       5.96359749       2.42735358       0.19952532      -0.01405545       0.05712374
H        5.66124892       6.40128506       2.09478223      -0.45384470      -0.51342205       0.27638511
H        6.21411790       4.24043216       2.98586368      -0.23661837      -0.36059285      -0.17810006
H        5.54746179       4.19947369       1.48938776      -0.04352466       0.04001176      -0.23371071
18
Lattice="7.9999999630420415 0.0 0.0 0.0 7.9999999630420415 0.0 0.0 0.0 7.9999999630420415" Properties=species:S:1:pos:R:3:forces:R:3 energy=-2494.332723692066 free_energy=-2494.332723692066 pbc="T T T"
N        0.50291476       3.92243733       6.66172799       0.09128907       0.09317395       0.19924481
N        1.04498970       4.03334714       5.31054055      -0.11334143       0.18429513       0.86518984
H        7.51929916       3.64091225       6.63586101      -0.15803183      -0.01030344      -0.03140345
H        0.50619942       4.85637086       7.08911561       0.20431066      -0.14576458      -0.09499841
H        0.38590842       4.56741782       4.74676181      -0.14822461      -0.06036307      -0.46890957
H        1.05210864       3.07258512       4.98204269       0.09671590      -0.08830557      -0.35519559
N        1.64401245       0.38320873       0.58714225       0.71131214       0.38844252       0.55251747
N        0.69214359       7.60862582       7.92214352      -0.96236366      -0.57990486      -0.68780275
H        1.56574455       0.12543379       1.56800637       0.23247323       0.12044281       0.21688284
H        1.49678961       1.39906068       0.53068054      -0.17175766      -0.06352373      -0.24505081
H        1.00610859       7.36607245       6.98311951       0.12937534       0.17611671      -0.01998030
H        7.77354467       0.05712413       7.82731666       0.01827180       0.02440234      -0.00264952
N        5.06140314       0.78240364       7.54221404      -0.25798809      -0.35009658       0.37040495
N        4.89964399       7.51956406       6.79170676      -0.07116171       0.63649587      -0.04154851
H        5.23526768       0.49168461       0.51438057       0.36973338      -0.11162187      -0.23884366
H        4.14028713       1.23341164       7.66918000      -0.03684597      -0.03464793      -0.33540992
H        4.66435082       7.81501075       5.83360811       0.24043825      -0.09041181       0.20707202
H        4.05599497       7.04039759       7.12070360      -0.17420484      -0.08842538       0.11048082
18
Lattice="7.9999999630420415 0.0 0.0 0.0 7.9999999630420415 0.0 0.0 0.0 7.9999999630420415" Properties=species:S:1:pos:R:3:forces:R:3 energy=-2494.3201362501177 free_energy=-2494.3201362501177 pbc="T T T"
N        3.78657311       1.18132466       3.98345297      -0.95027484      -0.72333000       0.16463056
N        4.82667557       1.28398228       4.92468128       1.07607661       0.01007564       0.15713220
H        3.62042571       0.23485837       3.62168141       0.21302927       0.04852443       0.01484221
H        3.92661267       1.78139395       3.19225728       0.36077925       0.51993774      -0.33536930
H        5.67769822       0.72624206       4.69194559      -0.54011010       0.22754700      -0.08379559
H        4.49845774       0.90940885       5.81385177      -0.13489987       0.04870235       0.02583393
N        5.57633439       5.72858722       6.10294831      -0.05483932      -0.10419344       0.60609823
N        5.29095676       4.36022171       6.53348703      -0.16949329       0.17972088       0.23135789
H        5.82505201       5.77252754       5.12152032      -0.05570604      -0.21848001      -0.48053970
H        6.44426391       5.98874723       6.57637137       0.03031922       0.00779379       0.04462227
H        5.31180370       3.69003005       5.75271658      -0.15494188       0.07492657       0.20330947
H        4.35147629       4.35688142       6.96809773       0.43950463      -0.00577881      -0.63022135
N        4.20521501       6.01109694       2.86865018      -0.25949064      -0.07135531      -0.83675010
N        5.59051270       6.15791346       2.56098624       0.37453980       0.02534259      -0.19441679
H        4.14295244       6.04916129       3.86531862      -0.27065977      -0.03265301       1.00270555
H        3.85298181       5.09367722       2.57237360      -0.08531435       0.12143372       0.03157752
H        5.68100160       6.50174061       1.59606061      -0.06608532      -0.16827176       0.31557437
H        6.05075762       5.24603631       2.61746550       0.24756715       0.06005763      -0.23659086
18
Lattice="7.9999999630420415 0.0 0.0 0.0 7.9999999630420415 0.0 0.0 0.0 7.9999999630420415" Properties=species:S:1:pos:R:3:forces:R:3 energy=-2494.3488849411146 free_energy=-2494.3488849411146 pbc="T T T"
N        4.38328644       1.42352403       3.84342996       0.50643456      -0.63497481       0.69056309
N        4.17217503       1.47586158       5.30441084       0.05682909      -0.13595685       0.08093987
H        5.35367248       1.08892373       3.70076042      -0.53512113       0.09096434      -0.17903568
H        4.37251123       2.38715903       3.50758442       0.01736420       0.30520074       0.02211483
H        5.04967788       1.23184254       5.79249170      -0.35513388       0.21320384      -0.22550966
H        3.51012669       0.72709946       5.57497040       0.35016394       0.26944467      -0.38814376
N        4.84207880       6.40213080       6.23257858       0.44844719       0.12531531       0.15899162
N        5.25208694       5.03495303       6.56963199      -1.04446438       0.92257146       0.54979262
H        4.88230693       6.61821471       5.21549691       0.09408669      -0.54043791       0.40483793
H        5.53458660       7.01900332       6.68946803      -0.35578951      -0.28127997      -0.23059067
H        5.91982765       4.69423276       5.90718477       0.52676273      -0.42472310      -0.73291430
H        4.40468487       4.45932371       6.50985466       0.28076986       0.04149658      -0.16775857
N        5.16783424       5.75750413       2.66941875       0.75977487      -0.56280368      -0.14360871
N        5.28101729       4.30683466       2.44724988       0.29451627       0.36450555       0.44727322
H        4.23913595       6.03433589       2.37605864      -0.32251301       0.01200294      -0.08956901
H        5.83511131       6.28976189       2.07850978      -0.34238687      -0.34696497       0.09868305
H        6.14559926       4.01142808       2.93328024      -0.47291226       0.20131429      -0.32244153
H        5.38076446       4.04560607       1.45640257       0.09317189       0.38112131       0.02637489
18
Lattice="7.9999999630420415 0.0 0.0 0.0 7.9999999630420415 0.0 0.0 0.0 7.9999999630420415" Properties=species:S:1:pos:R:3:forces:R:3 energy=-2494.2642617550573 free_energy=-2494.2642617550573 pbc="T T T"
N        7.80269573       4.68325613       0.19836855      -0.49015099       0.10629403       0.46892756
N        1.12619889       4.95466384       0.65179600      -0.42960717       0.38908118      -0.34679065
H        7.63956422       3.68721404       0.04271797      -0.00778479       0.07051353      -0.32660646
H        7.57499200       5.26340326       7.39689266       0.09560724      -0.19850639      -0.16915442
H        1.77334452       4.36795188       0.13125841       0.44465815      -0.20664702       0.31640587
H        1.12641432       4.72474748       1.64091628       0.36124102      -0.14714475       0.07980781
N        1.17101735       0.20026585       2.14722173       0.43202504       0.22292801      -0.05057308
N        0.53231578       1.45239578       1.81033454      -0.45692771      -0.77924995      -0.70129153
H        1.48865415       7.82703457       1.25051562      -0.01071636      -0.31022417       0.23618822
H        0.50210908       7.53053864       2.54825001       0.03747666       0.08457490      -0.19989967
H        0.59772305       2.08476897       2.59496174      -0.18936792       0.08851614       0.43476197
H        7.54907959       1.22794160       1.59544989       0.11479050       0.62816961       0.26454569
N        5.61177969       5.99031046       2.87074060       0.36630378      -0.88885402       0.22181498
N        5.33596273       7.35819668       3.11365166       0.00394639      -0.13476566       0.08978832
H        5.64597192       5.76029478       1.88453667       0.01416009       0.28262543      -0.26275594
H        5.05934759       5.24869052       3.33910001       0.00949611       0.86900536       0.06073820
H        5.94057885       7.67107053       3.87971815      -0.29394291      -0.07332992      -0.04611685
H        4.35978637       7.54531128       3.35999421      -0.00120662      -0.00298659      -0.06979002
18
Lattice="7.9999999630420415 0.0 0.0 0.0 7.9999999630420415 0.0 0.0 0.0 7.9999999630420415" Properties=species:S:1:pos:R:3:forces:R:3 energy=-2494.2685255067954 free_energy=-2494.2685255067954 pbc="T T T"
N        4.80158670       1.24040723       0.36332778       0.26063247       0.70772700      -0.04984701
N        3.69114840       1.76118108       1.10595528      -0.43112798       0.49570586      -0.06328950
H        4.52738123       1.09945717       7.39928651      -0.04807680      -0.35994262      -0.50414268
H        5.06256262       0.35565417       0.76476280       0.08443837      -0.52669383       0.18233698
H        2.80274816       1.46917623       0.66171112       0.11495402       0.14135025       0.19583784
H        3.72338142       2.78590085       0.97767292      -0.07428637      -0.43496715       0.17777944
N        2.76309073       7.79054985       5.88366160      -0.36525580      -0.91660470       0.81505024
N        1.82036507       0.51191646       5.07012993       0.45289931       0.14595304      -0.67136260
H        3.03857253       6.92134927       5.38872040      -0.01114290       0.31295673       0.46037813
H        2.24438546       7.50063793       6.74560582       0.51933816       0.13785484      -0.73218025
H        1.27512483       7.85014009       4.48765363       0.20744406       0.48219549       0.08833436
H        2.44277126       1.05514268       4.44966695      -0.66647313      -0.12820163      -0.12211069
N        0.38801588       1.89615805       7.38266461      -0.71122318       0.43983990      -0.35868843
N        0.18488158       3.37177829       7.37472025       0.65847649      -0.57276259       0.77655312
H        0.87637444       1.73819727       6.49167137       0.08653562      -0.54296685       0.04436284
H        7.42260562       1.52114520       7.22939598       0.71832766      -0.21027896       0.04857534
H        7.33912111       3.44679192       7.93470963      -0.21697874       0.64957970      -0.13151784
H        0.01870991       3.66505954       6.41502911      -0.57848201       0.17925577      -0.15606828
18
Lattice="7.9999999630420415 0.0 0.0 0.0 7.9999999630420415 0.0 0.0 0.0 7.9999999630420415" Properties=species:S:1:pos:R:3:forces:R:3 energy=-2494.2802864029586 free_energy=-2494.2802864029586 pbc="T T T"
N        3.73586698       1.62925178       4.70935965       0.32857413       0.24540897      -0.76802245
N        5.05467399       2.08092349       4.17935454      -0.85523067       0.03280162       0.52436132
H        3.30546096       1.08903799       3.93425437      -0.03704908       0.03552056       0.37787015
H        3.19856494       2.50063352       4.74766031      -0.15091347      -0.08097612       0.23404006
H        4.88753882       2.58741983       3.30783869       0.14716532      -0.07745577      -0.33930900
H        5.49916047       1.20454017       3.93762709       0.42627991      -0.25428442      -0.23574933
N        6.45886076       3.78868617       6.22171041      -0.25597209      -0.71893212      -0.09526297
N        5.42596838       4.06317055       7.18744801      -0.00968406       1.30892445       0.38986846
H        6.00716392       3.27714781       5.43092910       0.39080897      -0.00407340       0.17704642
H        7.04023734       3.07883396       6.68481436       0.18426274       0.26736002      -0.18279515
H        4.79955788       3.29065203       7.38039669      -0.32749375      -0.53255003      -0.30048303
H        4.86675910       4.83280734       6.80029674       0.09969324      -0.23352507       0.25467085
N        4.36245514       5.84087278       2.68833451       0.00312338      -1.08291137      -1.39821604
N        4.41189713       7.15580586       2.16953109       0.04285360       0.64018052       0.37590968
H        4.72460824       5.80703087       3.62448544       0.40671021       0.15367329       0.49130825
H        4.90700110       5.19147077       2.07052061      -0.42217900       0.40927437       0.72011380
H        3.64456404       7.29084792       1.51493536      -0.00970154      -0.10757059      -0.08256789
H        5.28868297       7.35119208       1.68517625       0.03875218      -0.00086466      -0.14278339
18
Lattice="7.9999999630420415 0.0 0.0 0.0 7.9999999630420415 0.0 0.0 0.0 7.9999999630420415" Properties=species:S:1:pos:R:3:forces:R:3 energy=-2494.279231553663 free_energy=-2494.279231553663 pbc="T T T"
N        4.29732314       1.54642452       4.96408474       0.28631676       0.10266441      -0.01186461