18
Lattice="7.9999999630420415 0.0 0.0 0.0 7.9999999630420415 0.0 0.0 0.0 7.9999999630420415" Properties=species:S:1:pos:R:3:forces:R:3 energy=-2494.386247939902 free_energy=-2494.386247939902 pbc="T T T"
N        3.69560465       1.54927021       4.54433869       0.26567749      -0.43088732       0.32942568
N        5.03614634       1.95971082       4.20997905      -0.10071242       0.18309983      -0.49796226
H        3.27960980       0.97732144       3.80446969       0.00064560       0.06859318      -0.08424014
H        3.13141848       2.37182736       4.71854119      -0.07340448       0.23930774      -0.09538818
H        5.05791683       2.35778806       3.25352677       0.02772241      -0.06888397       0.22010957
H        5.58065485       1.09589656       4.12442089      -0.10427006       0.01480133       0.14267463
N        6.44620521       3.93416361       6.16629297      -0.15118112       1.07560455       0.96151185
N        5.38144239       4.09100341       7.18638833       0.03521871      -0.94124667      -0.75102669
H        6.14963456       3.24541105       5.47904260       0.03526577      -0.49877113      -0.17925037
H        7.28470610       3.65452501       6.68347709      -0.22795375      -0.17321676      -0.28494559
H        4.80934977       3.21984146       7.10670339       0.16696615       0.67758930       0.31352058
H        4.77530060       4.84260283       6.84008001       0.07900229      -0.07110900       0.01705361
N        4.24503662       5.82091096       2.71969016       0.56458803       0.90355070       1.04752194
N        4.54350326       7.22361335       2.32518697      -0.33989264      -0.58234330      -0.50364183
H        4.74725804       5.72990262       3.62609049      -0.49811190      -0.01577192      -0.38713460
H        4.75396005       5.18391161       2.11803807       0.21223737      -0.31780789      -0.62606748
H        3.87588003       7.42472371       1.57083630      -0.13880769       0.01248733       0.22233486
H        5.43609812       7.25813057       1.82074294       0.24701077      -0.07499625       0.15550469