12
Lattice="7.9999999630420415 0.0 0.0 0.0 7.9999999630420415 0.0 0.0 0.0 7.9999999630420415" Properties=species:S:1:pos:R:3:forces:R:3 energy=-1662.988599537294 free_energy=-1662.988599537294 pbc="T T T"
N        1.59138042       7.54530532       7.07763327       0.65071741      -0.30760550      -0.18130365
N        2.66554853       0.52245028       7.06272621      -0.41833957      -0.05673422       0.32517924
H        0.68991707       7.97651414       7.29136539      -0.28641369       0.00652520       0.16771049
H        1.83338435       6.81165048       7.74481731      -0.07212330       0.17819853       0.03448235
H        2.50587544       1.24936535       7.78470629       0.03820942      -0.14067277      -0.39962708
H        2.58265795       0.95452335       6.14505187       0.14618007       0.31585899      -0.01302109
N        6.80453140       0.87733149       7.09176463       0.44453577       0.00543197      -0.40073394
N        5.86148643       7.85709872       6.75182723       0.19600394       0.30229231      -0.23665848
H        6.50190363       1.52382576       7.81188645      -0.37382117       0.19531385       0.29594863
H        7.01685527       1.41946009       6.25366339      -0.08708943      -0.00364840       0.00972725
H        4.88155333       0.16529272       6.83280377       0.07825281      -0.28782369       0.27100739
H        6.06795767       7.07076667       7.35724611      -0.31611225      -0.20713604       0.12728889
