63
pbc=[T, T, T] energy=-277.97797002 Lattice="11.56165000 0.00000000 0.00000000 0.00000000 11.56165000 0.00000000 0.00000000 0.00000000 11.56165000" Properties=species:S:1:pos:R:3:force:R:3:momenta:R:3:masses:R:1:Z:I:1
Ge         4.29164980       4.42339480       4.27177532         0.84976103      -0.80134346      -0.22589550         0.00000000       0.00000000       0.00000000        72.63000000         32
Ge         4.19898317       4.63427929      10.51527443        -0.26158939       0.16253263      -0.00954739         0.00000000       0.00000000       0.00000000        72.63000000         32
Ge         4.41759085      10.03588217       4.48089088        -0.57693050       0.98785551      -1.10152705         0.00000000       0.00000000       0.00000000        72.63000000         32
Ge         4.33316768      10.17200904      10.00508194        -0.57226925       0.46021237       0.01567565         0.00000000       0.00000000       0.00000000        72.63000000         32
Ge        10.09718204       4.24807394       4.53119562         0.15148204      -0.12882296       0.00072117         0.00000000       0.00000000       0.00000000        72.63000000         32
Ge        10.09351700       4.38230469       9.98677985        -0.12702424      -0.78465860      -0.29526767         0.00000000       0.00000000       0.00000000        72.63000000         32
Ge        10.11448983      10.07961989       4.28681703         0.23775601      -0.01752188      -0.50692877         0.00000000       0.00000000       0.00000000        72.63000000         32
Ge        10.17239057      10.09722829      10.19989574        -0.03348500       0.56835582      -0.05229314         0.00000000       0.00000000       0.00000000        72.63000000         32
Ge         2.89178834       0.05173838       0.10596252         0.06390442      -0.34777970      -1.16015336         0.00000000       0.00000000       0.00000000        72.63000000         32
Ge         2.96463829      11.54221487       5.92934596        -0.38398660       0.13890301      -0.42028878         0.00000000       0.00000000       0.00000000        72.63000000         32
Ge         2.98176110       5.87954993       5.69001980        -0.74533361       0.03180484      -0.08547055         0.00000000       0.00000000       0.00000000        72.63000000         32
Ge         8.56626928      11.54608802      11.50488230         0.78417996      -0.08918869       0.76380032         0.00000000       0.00000000       0.00000000        72.63000000         32
Ge         8.63200882      11.55399619       5.63346021        -0.05623705       0.03434565      -0.30310646         0.00000000       0.00000000       0.00000000        72.63000000         32
Ge         8.48010030       5.72756048      11.28924596        -0.16089225      -0.20215671       0.29498375         0.00000000       0.00000000       0.00000000        72.63000000         32
Ge         8.63961639       5.82807746       5.80466512         0.48687867      -0.10067652       0.81349533         0.00000000       0.00000000       0.00000000        72.63000000         32
Ge         4.38176130       1.51758218       1.38468101         0.31894775      -0.10734454       0.19243143         0.00000000       0.00000000       0.00000000        72.63000000         32
Ge         4.29341873       1.54501797       7.36895637         0.49887396       0.14885059      -0.51612954         0.00000000       0.00000000       0.00000000        72.63000000         32
Ge         4.19445100       7.12245043       1.33367101         0.36953918      -0.01759886       0.09613692         0.00000000       0.00000000       0.00000000        72.63000000         32
Ge         4.36766764       7.14152715       7.23918841        -0.28548012       0.27777394       0.49073174         0.00000000       0.00000000       0.00000000        72.63000000         32
Ge        10.19106264       1.53260076       1.35149908        -0.28100785       0.03007924      -0.32664054         0.00000000       0.00000000       0.00000000        72.63000000         32
Ge        10.19537513       1.21586936       7.11646149         0.14350771       0.35985792       0.27472131         0.00000000       0.00000000       0.00000000        72.63000000         32
Ge         9.79404714       7.04897614       1.30635083         1.48621128       0.00363979       0.51634798         0.00000000       0.00000000       0.00000000        72.63000000         32
Ge        10.12792447       7.34014474       7.32011996         0.01675265      -1.10748536      -0.10293803         0.00000000       0.00000000       0.00000000        72.63000000         32
Ge         2.90385870       2.81840654       2.88340614        -0.07458097       1.08242347      -0.17728897         0.00000000       0.00000000       0.00000000        72.63000000         32
Ge         2.99523042       3.09042905       8.87615618         0.03897717      -0.04542167      -0.35146514         0.00000000       0.00000000       0.00000000        72.63000000         32
Ge         2.79095919       8.70610744       2.88618094         1.08885970      -0.77387350       0.67282493         0.00000000       0.00000000       0.00000000        72.63000000         32
Ge         2.85439796       8.52993101       8.74997234         0.37693278       0.50639572      -0.36668815         0.00000000       0.00000000       0.00000000        72.63000000         32
Ge         8.77079487       2.86679205       2.92747915         0.04045933       0.53901721      -0.83692776         0.00000000       0.00000000       0.00000000        72.63000000         32
Ge         8.76299075       2.59672347       8.62425095         0.12634743       1.26629020      -0.00544106         0.00000000       0.00000000       0.00000000        72.63000000         32
Ge         8.65206828       8.58297586       2.77670367        -0.16601668       0.92206700       0.45806061         0.00000000       0.00000000       0.00000000        72.63000000         32
Ge         8.72703402       8.75178752       8.75852796        -0.36271882      -0.13887469      -0.33543857         0.00000000       0.00000000       0.00000000        72.63000000         32
Ge         1.40027768       4.47383828       1.57234972         0.27772752       0.05470694       0.16262810         0.00000000       0.00000000       0.00000000        72.63000000         32
Ge         1.64439036       4.36343608       7.13908764        -0.17452189      -0.20845509       0.60579673         0.00000000       0.00000000       0.00000000        72.63000000         32
Ge         1.49245871      10.07321474       1.44356450        -1.13654991       0.79902904      -0.01087683         0.00000000       0.00000000       0.00000000        72.63000000         32
Ge         1.44191118      10.04170924       7.26217297         0.26500763      -0.02759717      -0.04597283         0.00000000       0.00000000       0.00000000        72.63000000         32
Ge         7.21581075       4.20743474       1.30548371         0.64998460       0.25151494       0.76267562         0.00000000       0.00000000       0.00000000        72.63000000         32
Ge         7.33127695       4.30230964       7.33106884        -0.24646910      -0.37933417      -0.36526644         0.00000000       0.00000000       0.00000000        72.63000000         32
Ge         7.13810490      10.09055722       1.45066335        -0.02781395       0.17644700      -0.03486315         0.00000000       0.00000000       0.00000000        72.63000000         32
Ge         7.33320775      10.12447910       7.16725182        -0.37212650      -0.11285535       0.28680596         0.00000000       0.00000000       0.00000000        72.63000000         32
Ge        11.56057477       0.11002066       2.84089395         0.31495494      -0.67159003       0.24400654         0.00000000       0.00000000       0.00000000        72.63000000         32
Ge         0.08370635      11.51751918       8.70366793        -0.16525835      -0.12479498       0.27155402         0.00000000       0.00000000       0.00000000        72.63000000         32
Ge        11.35313564       5.80363614       3.06447314         0.17785043       0.03970558      -0.92580162         0.00000000       0.00000000       0.00000000        72.63000000         32
Ge         0.12463459       5.67709388       8.63205507        -0.13528350       0.92211487      -0.18229387         0.00000000       0.00000000       0.00000000        72.63000000         32
Ge         5.81568337       0.13268150       2.91909695        -0.99918297      -1.57662493      -0.52323713         0.00000000       0.00000000       0.00000000        72.63000000         32
Ge         5.85092328       0.03691635       8.57541454        -0.57074715      -0.53204907      -0.23134977         0.00000000       0.00000000       0.00000000        72.63000000         32
Ge         5.94565944       5.72062349       2.88615781        -0.96999186       0.22579100      -0.68322312         0.00000000       0.00000000       0.00000000        72.63000000         32
Ge         5.63620032       5.60460233       8.67988561         0.53019090       0.12731231       0.21834821         0.00000000       0.00000000       0.00000000        72.63000000         32
Ge         1.45504521       1.50841379       4.38837456         0.52006451      -1.36618161      -0.38667069         0.00000000       0.00000000       0.00000000        72.63000000         32
Ge         1.50286420       1.52056508      10.09350544        -0.23476461       0.05429407       0.42959419         0.00000000       0.00000000       0.00000000        72.63000000         32
Ge         1.34442335       7.27227785       4.38736870         0.42047439      -0.24910874      -0.59658428         0.00000000       0.00000000       0.00000000        72.63000000         32
Ge         1.48314002       7.15560924      10.24274321        -0.39510760      -0.40484657       0.48749225         0.00000000       0.00000000       0.00000000        72.63000000         32
Ge         7.19779770       1.53806942       4.19556092         0.31643248       0.35890519       1.51859497         0.00000000       0.00000000       0.00000000        72.63000000         32
Ge         7.18801654       1.37182446      10.06293643         0.41616348       0.01991545      -0.08677966         0.00000000       0.00000000       0.00000000        72.63000000         32
Ge         7.29348192       7.25557127       4.33309831        -0.61613488       0.07512818       0.11782431         0.00000000       0.00000000       0.00000000        72.63000000         32
Ge         7.09313008       7.26701730       9.93394310        -0.19424338       0.05278151       0.05072446         0.00000000       0.00000000       0.00000000        72.63000000         32
Ge         0.10037825       3.16938355      11.46595422        -0.21042184      -0.83063501       0.33221450         0.00000000       0.00000000       0.00000000        72.63000000         32
Ge         0.15361964       2.80598933       5.89537783        -0.87295936       0.72919886       0.16353467         0.00000000       0.00000000       0.00000000        72.63000000         32
Ge        11.45127093       8.60379840       0.13743333         0.47550102      -0.40996943      -0.20944832         0.00000000       0.00000000       0.00000000        72.63000000         32
Ge        11.53768270       8.62684076       5.82375341        -0.22747046       0.91562899       0.06924028         0.00000000       0.00000000       0.00000000        72.63000000         32
Ge         5.81552151       2.88818110      11.36916009        -0.77980222       0.15260241       0.42308027         0.00000000       0.00000000       0.00000000        72.63000000         32
Ge         5.77343711       2.96723966       5.81248080        -0.12636466      -0.01991578      -0.05039047         0.00000000       0.00000000       0.00000000        72.63000000         32
Ge         5.68223881       8.74152077      11.40221485         0.09634284      -0.74417229       0.90372789         0.00000000       0.00000000       0.00000000        72.63000000         32
Ge         5.76421091       8.61030760       5.87840533         1.00270071      -0.15460388      -0.12557951         0.00000000       0.00000000       0.00000000        72.63000000         32
63
pbc=[T, T, T] energy=-277.78948005 Lattice="11.56165000 0.00000000 0.00000000 0.00000000 11.56165000 0.00000000 0.00000000 0.00000000 11.56165000" Properties=species:S:1:pos:R:3:force:R:3:momenta:R:3:masses:R:1:Z:I:1
Ge         4.38188847       4.16894600       4.31247233        -0.25725308       0.21605800      -0.07955016         0.00000000       0.00000000       0.00000000        72.63000000         32
Ge         4.07770146       4.46559482      10.31633312        -0.06913186       0.50153467       0.10171327         0.00000000       0.00000000       0.00000000        72.63000000         32
Ge         4.31088838      10.11859422       4.35535449         1.09927781      -0.49215249      -0.07253088         0.00000000       0.00000000       0.00000000        72.63000000         32
Ge         4.29634382      10.21514556      10.07401249         0.00654218      -0.24952569      -0.31079439         0.00000000       0.00000000       0.00000000        72.63000000         32
Ge        10.10625794       4.22446505       4.41281589        -0.20561218       0.62463802      -0.68974230         0.00000000       0.00000000       0.00000000        72.63000000         32
Ge        10.16084049       4.45220643      10.28707058         0.16981688      -0.19564499      -0.03984404         0.00000000       0.00000000       0.00000000        72.63000000         32
Ge        10.02366151      10.18347820       4.42234269         0.10957221      -0.30263686       0.10692175         0.00000000       0.00000000       0.00000000        72.63000000         32
Ge        10.15220393       9.99668818      10.11253591        -0.09800758       0.58135170      -0.25554483         0.00000000       0.00000000       0.00000000        72.63000000         32
Ge         2.85600503      11.50090509       0.03887027         0.55960428       0.23453359       0.19772438         0.00000000       0.00000000       0.00000000        72.63000000         32
Ge         3.10734374       0.10171940       5.76744817        -0.84769886       0.62463527      -0.02993367         0.00000000       0.00000000       0.00000000        72.63000000         32
Ge         2.87108142       5.57384834       5.71998760        -0.13789271       0.92283910      -0.41292988         0.00000000       0.00000000       0.00000000        72.63000000         32
Ge         8.67775827       0.10605502      11.46172266        -0.05244978      -0.46741428       0.25322976         0.00000000       0.00000000       0.00000000        72.63000000         32
Ge         8.51865840       0.05181932       5.99923613         0.31804220      -0.67276686      -0.99436207         0.00000000       0.00000000       0.00000000        72.63000000         32
Ge         8.54804812       5.79139235       0.16802546         0.66128573       0.43026200      -0.52582558         0.00000000       0.00000000       0.00000000        72.63000000         32
Ge         8.83688126       5.87933026       5.82450491        -0.92397571      -0.92968343      -0.58743718         0.00000000       0.00000000       0.00000000        72.63000000         32
Ge         4.32124762       1.46304588       1.42755161         0.85835420      -0.68306669      -0.12366054         0.00000000       0.00000000       0.00000000        72.63000000         32
Ge         4.42977683       1.60790179       7.28977063        -0.64779013       0.32255877      -0.64808585         0.00000000       0.00000000       0.00000000        72.63000000         32
Ge         4.31405627       7.26331757       1.44318296        -0.79454923       0.28859630      -0.25532713         0.00000000       0.00000000       0.00000000        72.63000000         32
Ge         4.13865448       7.16233812       7.20604116         0.47565612       0.79845166      -0.86326076         0.00000000       0.00000000       0.00000000        72.63000000         32
Ge        10.15958027       1.48841214       1.54358433        -1.03192097       0.02256142      -0.26861828         0.00000000       0.00000000       0.00000000        72.63000000         32
Ge        10.07407030       1.45370406       7.18598169        -0.25260393       1.10244327       0.90539121         0.00000000       0.00000000       0.00000000        72.63000000         32
Ge        10.27390186       7.15381718       1.48540611        -0.80809416      -0.06489900       0.05873728         0.00000000       0.00000000       0.00000000        72.63000000         32
Ge        10.25009642       7.23336134       7.16221094         0.98334977       0.33516810       0.77508131         0.00000000       0.00000000       0.00000000        72.63000000         32
Ge         2.87638822       2.80276363       2.80718018        -0.31337652       0.99443948      -0.17459363         0.00000000       0.00000000       0.00000000        72.63000000         32
Ge         2.90726939       2.89183458       8.80600009        -0.36007726      -0.45807592       0.14677723         0.00000000       0.00000000       0.00000000        72.63000000         32
Ge         2.82917044       8.73864192       2.89872533         0.26925360      -0.86827945       0.13888756         0.00000000       0.00000000       0.00000000        72.63000000         32
Ge         2.81727350       8.75537163       8.60480426         0.23343894      -0.04544308       0.25222092         0.00000000       0.00000000       0.00000000        72.63000000         32
Ge         8.51695884       2.90763936       2.95163144         0.32773218       0.11080485      -0.32047619         0.00000000       0.00000000       0.00000000        72.63000000         32
Ge         8.67143405       3.17343013       8.80465894         0.61097961      -0.37363288      -1.27154625         0.00000000       0.00000000       0.00000000        72.63000000         32
Ge         8.74246883       8.59161242       2.85409736         0.20969112       0.50674046      -0.05398886         0.00000000       0.00000000       0.00000000        72.63000000         32
Ge         8.73294203       8.48003093       8.65313196        -0.18758828       0.34404159       0.55635028         0.00000000       0.00000000       0.00000000        72.63000000         32
Ge         1.69377016       4.35467235       1.01756394        -0.01673005      -0.13777101       0.49554526         0.00000000       0.00000000       0.00000000        72.63000000         32
Ge         1.51670349       4.27350957       7.28449851        -0.58821894      -0.47941799      -0.04917333         0.00000000       0.00000000       0.00000000        72.63000000         32
Ge         1.44164526      10.11911449       1.45148423        -0.45345869       0.24148536       0.45680369         0.00000000       0.00000000       0.00000000        72.63000000         32
Ge         1.55121502      10.29363760       7.12406906        -0.54692632      -0.32254139      -0.09505016         0.00000000       0.00000000       0.00000000        72.63000000         32
Ge         6.99143381       4.43075957       1.46371645         0.91334739      -0.91141618       0.33611329         0.00000000       0.00000000       0.00000000        72.63000000         32
Ge         7.20391381       4.53948532       7.31347201         0.36339834       0.09803493      -0.13305957         0.00000000       0.00000000       0.00000000        72.63000000         32
Ge         7.24244879       9.96441961       1.36012407         0.21965204       0.92592143       0.17677139         0.00000000       0.00000000       0.00000000        72.63000000         32
Ge         7.22980035       9.98702264       7.32830561        -0.39016070       0.42673618       0.26159430         0.00000000       0.00000000       0.00000000        72.63000000         32
Ge        11.52696505       0.01298373       2.93101701        -0.04998192      -0.62369159      -0.05252590         0.00000000       0.00000000       0.00000000        72.63000000         32
Ge        11.52430587       0.03999175       8.56445410        -0.07404727      -1.05798773       0.35293459         0.00000000       0.00000000       0.00000000        72.63000000         32
Ge         0.10400860       5.57728215       2.78046121        -0.17680700      -0.68255994      -0.30628829         0.00000000       0.00000000       0.00000000        72.63000000         32
Ge         0.20968208       5.77256998       8.79261170        -1.05920176       0.00487195      -0.51334048         0.00000000       0.00000000       0.00000000        72.63000000         32
Ge         5.85434553      11.50330991       2.92411471        -0.44493820      -0.14379074      -0.63420061         0.00000000       0.00000000       0.00000000        72.63000000         32
Ge         5.72773390       0.16046414       8.63714219         0.57558302      -1.57597596       0.16481318         0.00000000       0.00000000       0.00000000        72.63000000         32
Ge         5.63437358       5.81594929       2.88564910         0.05710290       0.08581873       0.65363523         0.00000000       0.00000000       0.00000000        72.63000000         32
Ge         5.53458498       5.86386077       8.67308736         0.13354011      -0.83626039       0.47132075         0.00000000       0.00000000       0.00000000        72.63000000         32
Ge         1.42781753       1.44283611       4.26539329         0.43097665      -0.12916821       0.78521394         0.00000000       0.00000000       0.00000000        72.63000000         32
Ge         1.41262552       1.22169643      10.14547505         0.19594464       0.85330334      -0.82472335         0.00000000       0.00000000       0.00000000        72.63000000         32
Ge         1.35307146       7.10547793       4.19550311         0.94784165       0.18808365       0.58710689         0.00000000       0.00000000       0.00000000        72.63000000         32
Ge         1.56497338       7.23729230      10.15132525         0.47599063       0.19305730       0.56456871         0.00000000       0.00000000       0.00000000        72.63000000         32
Ge         7.14903066       1.43462734       4.45352446         0.35990029      -0.23270256      -0.33953867         0.00000000       0.00000000       0.00000000        72.63000000         32
Ge         7.24033301       1.58091690       9.87422718        -0.06891586      -0.12422468       1.70137210         0.00000000       0.00000000       0.00000000        72.63000000         32
Ge         7.32916117       7.13933044       4.24073229        -0.28076543       0.13221488       0.48303813         0.00000000       0.00000000       0.00000000        72.63000000         32
Ge         7.11841541       7.09902652      10.07801283         0.35875064       0.64805282       0.32377263         0.00000000       0.00000000       0.00000000        72.63000000         32
Ge        11.54593772       2.68511228      11.46186140         0.15269244       1.12960417       0.47295329         0.00000000       0.00000000       0.00000000        72.63000000         32
Ge        11.55458583       2.84750722       5.77910231         0.60037378      -0.08594088       0.29886893         0.00000000       0.00000000       0.00000000        72.63000000         32
Ge         0.08316295       8.62462093       0.07935917        -0.14657142      -0.08173013      -0.69571941         0.00000000       0.00000000       0.00000000        72.63000000         32
Ge         0.15729625       8.68223263       5.71490047        -0.52787583       0.43529559       0.02550910         0.00000000       0.00000000       0.00000000        72.63000000         32
Ge         5.70213641       3.01472336      11.50454701        -0.04290732      -0.82218458      -0.31599925         0.00000000       0.00000000       0.00000000        72.63000000         32
Ge         5.92199275       2.98881370       5.87487902        -0.37577311       0.15789729      -0.03622218         0.00000000       0.00000000       0.00000000        72.63000000         32
Ge         5.65765874       8.67868320      11.46417373         0.55361504      -0.29690922      -0.02711148         0.00000000       0.00000000       0.00000000        72.63000000         32
Ge         5.89642994       8.57939175       5.76130893        -1.00000428      -0.13454108      -0.10396519         0.00000000       0.00000000       0.00000000        72.63000000         32
63
pbc=[T, T, T] energy=-278.11418804 Lattice="11.56165000 0.00000000 0.00000000 0.00000000 11.56165000 0.00000000 0.00000000 0.00000000 11.56165000" Properties=species:S:1:pos:R:3:force:R:3:momenta:R:3:masses:R:1:Z:I:1
Ge         4.43657508       4.47847450       4.36101970        -0.06450415      -1.10953876      -0.92317345         0.00000000       0.00000000       0.00000000        72.63000000         32
Ge         4.10031605       4.52566915      10.14615719        -0.21644650      -0.12588251      -0.16646486         0.00000000       0.00000000       0.00000000        72.63000000         32
Ge         4.28549900      10.08193222       4.34700698         0.11749941       0.34034127       0.47785193         0.00000000       0.00000000       0.00000000        72.63000000         32
Ge         4.29566169       9.99923174      10.19603415        -0.24681970       0.05543773      -0.60978317         0.00000000       0.00000000       0.00000000        72.63000000         32
Ge        10.07416280       4.31249545       4.26530079        -0.66395315       0.04368561      -0.07001552         0.00000000       0.00000000       0.00000000        72.63000000         32
Ge        10.17713085       4.32158291       9.97923009        -0.09050017      -0.35789844       0.30680423         0.00000000       0.00000000       0.00000000        72.63000000         32
Ge        10.05556010      10.11563443       4.25835224         0.98363839      -0.61307467      -0.47436636         0.00000000       0.00000000       0.00000000        72.63000000         32
Ge        10.18684264      10.02524545      10.21197766        -0.82723397       0.39606224      -0.51720825         0.00000000       0.00000000       0.00000000        72.63000000         32
Ge         2.92173301      11.49228010       0.06249072         0.21538708      -0.00398537       0.21496577         0.00000000       0.00000000       0.00000000        72.63000000         32
Ge         2.76499172       0.07905856       5.69503756         0.11771178       0.06575757      -0.25110211         0.00000000       0.00000000       0.00000000        72.63000000         32
Ge         2.98983113       5.80247997       5.73219670        -0.43958915       0.05250630       1.24035770         0.00000000       0.00000000       0.00000000        72.63000000         32
Ge         8.62154553      11.55156824      11.54725575        -0.14326913      -0.21000368      -0.36130062         0.00000000       0.00000000       0.00000000        72.63000000         32
Ge         8.85872122      11.55761498       5.69092161        -1.42600435       0.75344033       0.70679716         0.00000000       0.00000000       0.00000000        72.63000000         32
Ge         8.75011108       5.60684529       0.05356512        -0.39346314       0.25896042       0.05820634         0.00000000       0.00000000       0.00000000        72.63000000         32
Ge         8.78354737       5.86791891       5.75385167        -0.23781612      -0.55617400       0.54420186         0.00000000       0.00000000       0.00000000        72.63000000         32
Ge         4.26687318       1.51602136       1.40846333         0.66498303      -0.77421327      -0.17771647         0.00000000       0.00000000       0.00000000        72.63000000         32
Ge         4.43641321       1.38964096       7.03177241         0.08804054      -0.63797314       0.49346127         0.00000000       0.00000000       0.00000000        72.63000000         32
Ge         4.25799383       7.16060387       1.26623191        -0.63866220       0.53001476       0.02906366         0.00000000       0.00000000       0.00000000        72.63000000         32
Ge         4.35984041       7.26917933       7.32883744        -0.27049313      -0.12030737       0.34645458         0.00000000       0.00000000       0.00000000        72.63000000         32
Ge        10.07611671       1.50389319       1.22664482         0.60806936       0.07725918       0.38860007         0.00000000       0.00000000       0.00000000        72.63000000         32
Ge        10.18054154       1.40564228       7.28356202        -0.29222651      -0.04147842       0.16879998         0.00000000       0.00000000       0.00000000        72.63000000         32
Ge        10.06193057       7.23565054       1.42478838         0.06951040      -0.07292726       0.38816191         0.00000000       0.00000000       0.00000000        72.63000000         32
Ge        10.25553040       7.27366525       7.27719155        -0.54004542       0.09421617      -0.02028272         0.00000000       0.00000000       0.00000000        72.63000000         32
Ge         2.89970807       2.90756999       2.75835533         0.12937943       1.51700010       0.77212523         0.00000000       0.00000000       0.00000000        72.63000000         32
Ge         3.04110705       2.62376617       8.63148855         0.14138231       1.37779367       0.02282360         0.00000000       0.00000000       0.00000000        72.63000000         32
Ge         2.83796886       8.71557643       2.94028946         0.06487785      -0.99047957      -0.58289753         0.00000000       0.00000000       0.00000000        72.63000000         32