53
pbc=[T, T, T] energy=-539.80255298 Lattice="9.45012100 0.00000000 0.00000000 0.00000000 9.45012100 0.00000000 0.00000000 0.00000000 9.45012100" Properties=species:S:1:pos:R:3:force:R:3:momenta:R:3:masses:R:1:Z:I:1
Mo         1.71279663       1.63575924       1.88789792        -4.21477309      -4.16984221       2.71052649         0.00000000       0.00000000       0.00000000        95.95000000         42
Mo         8.55099869       8.76992019       5.91804378         0.45094448       1.28868330      -1.97207130         0.00000000       0.00000000       0.00000000        95.95000000         42
Mo         0.11288170       3.49131885       0.30491760        -3.40570667      -3.40837254      -4.22584854         0.00000000       0.00000000       0.00000000        95.95000000         42
Mo         9.14904960       3.20579290       3.18453012         2.29987595      -1.71611201       2.13319475         0.00000000       0.00000000       0.00000000        95.95000000         42
Mo         0.00030240       3.04887364       6.18642721        -1.04585937       0.96593171       0.92760711         0.00000000       0.00000000       0.00000000        95.95000000         42
Mo         9.02818255       6.36265307       0.14210147         3.70082711       0.70937227      -0.85091253         0.00000000       0.00000000       0.00000000        95.95000000         42
Mo         0.03980391       6.58884171       3.30690919        -1.17702231      -1.80989443       0.22085480         0.00000000       0.00000000       0.00000000        95.95000000         42
Mo         1.28682298       7.90144462       4.95590806         3.02509909       0.26076855       0.58712654         0.00000000       0.00000000       0.00000000        95.95000000         42
Mo         1.29003602       1.60192781       8.28262470         1.75304529       0.76688660      -3.06988762         0.00000000       0.00000000       0.00000000        95.95000000         42
Mo         3.07197918       9.11728774       3.38094144         1.08031446       3.72463360      -0.80509412         0.00000000       0.00000000       0.00000000        95.95000000         42
Mo         2.90355913       9.43540716       6.49761025         1.38276814      -0.06842155      -0.83958850         0.00000000       0.00000000       0.00000000        95.95000000         42
Mo         2.95324786       2.68846492       0.56477703         3.30188195       5.54298794      -5.14073639         0.00000000       0.00000000       0.00000000        95.95000000         42
Mo         3.45761972       2.99695467       3.48742540        -3.23832679       2.05171280      -1.16601096         0.00000000       0.00000000       0.00000000        95.95000000         42
Mo         2.74852044       3.08399029       6.65728894         2.13618165      -0.03737913      -1.60893649         0.00000000       0.00000000       0.00000000        95.95000000         42
Mo         3.33672432       6.16128044       0.17808753        -0.29277275       0.93335477      -0.79952794         0.00000000       0.00000000       0.00000000        95.95000000         42
Mo         2.91302815       6.26975838       3.14565233         2.51675456      -0.87489266      -0.45488369         0.00000000       0.00000000       0.00000000        95.95000000         42
Mo         3.20253261       6.17856471       6.34268496        -0.58853546       2.28272564      -1.05608084         0.00000000       0.00000000       0.00000000        95.95000000         42
Mo         6.20304997       0.44084814       9.35167909         1.37001503      -2.56988087       0.63833888         0.00000000       0.00000000       0.00000000        95.95000000         42
Mo         6.34122019       9.18811640       3.40216641         0.68618293       0.39921007       0.81748395         0.00000000       0.00000000       0.00000000        95.95000000         42
Mo         6.15861551       0.11257929       6.75771538        -1.88255744      -0.67207115      -2.76471202         0.00000000       0.00000000       0.00000000        95.95000000         42
Mo         6.85987118       3.06784003       0.17079204        -2.62086853      -2.00577094       0.84637477         0.00000000       0.00000000       0.00000000        95.95000000         42
Mo         6.18675797       3.14400801       3.20195615         2.80339091      -0.23020235      -0.79624203         0.00000000       0.00000000       0.00000000        95.95000000         42
Mo         6.10893622       3.28626068       6.35606633        -0.67757606      -4.99439079      -3.80095799         0.00000000       0.00000000       0.00000000        95.95000000         42
Mo         6.38410484       5.59742952       9.26120363        -3.73340461       5.93248052       3.51159166         0.00000000       0.00000000       0.00000000        95.95000000         42
Mo         6.48338781       6.09957115       2.83937391        -3.84866752       4.11407891       2.58569120         0.00000000       0.00000000       0.00000000        95.95000000         42
Mo         6.68832314       6.56635988       6.15102706        -3.00282318       0.79984844      -0.05354380         0.00000000       0.00000000       0.00000000        95.95000000         42
Mo         3.18984109       9.43139086       9.38756120        -0.84051714      -2.17227947       2.33323048         0.00000000       0.00000000       0.00000000        95.95000000         42
Mo         1.69090070       1.75001121       4.83589152        -1.70501206      -1.63893930       0.28826319         0.00000000       0.00000000       0.00000000        95.95000000         42
Mo         0.02224558       0.05973421       0.06141634        -0.49739658      -2.00483905       2.45914930         0.00000000       0.00000000       0.00000000        95.95000000         42
Mo         1.45842772       4.51625063       1.63478588         3.74412800       4.67469839       3.25754056         0.00000000       0.00000000       0.00000000        95.95000000         42
Mo         1.62267083       4.84318701       4.61641246        -0.97220011      -1.23192267       1.75117499         0.00000000       0.00000000       0.00000000        95.95000000         42
Mo         1.70217469       4.96199393       7.82685482        -2.06911172      -0.51176689       2.35869106         0.00000000       0.00000000       0.00000000        95.95000000         42
Mo         1.70410252       7.98377407       1.74875434        -1.58534713      -1.45529372      -2.57839836         0.00000000       0.00000000       0.00000000        95.95000000         42
Mo         0.25675979       0.15954639       3.28446515        -2.66226403      -0.21436756       1.32054047         0.00000000       0.00000000       0.00000000        95.95000000         42
Mo         1.47595770       7.98426548       7.93712828        -0.04107670      -1.27471232       0.25184854         0.00000000       0.00000000       0.00000000        95.95000000         42
Mo         4.95123025       1.35070579       1.66623588        -1.91688810       0.48727629       1.73926372         0.00000000       0.00000000       0.00000000        95.95000000         42
Mo         4.79394243       1.43679640       4.56602441        -1.21625594      -1.55674335       3.23761159         0.00000000       0.00000000       0.00000000        95.95000000         42
Mo         4.36177895       1.67429684       8.08533453         1.98613788       0.37089014      -1.47460347         0.00000000       0.00000000       0.00000000        95.95000000         42
Mo         4.62235658       4.27475278       1.58103359         1.51626873       2.69544761      -0.64835197         0.00000000       0.00000000       0.00000000        95.95000000         42
Mo         5.07562219       4.99529616       4.49601792        -2.87618875      -0.45315553       1.99104988         0.00000000       0.00000000       0.00000000        95.95000000         42
Mo         4.75019782       4.63713657       7.48641421        -2.35854927       1.73343595       3.72780276         0.00000000       0.00000000       0.00000000        95.95000000         42
Mo         4.80290115       8.03063722       1.76360048        -0.00480164      -1.80987144      -1.74234883         0.00000000       0.00000000       0.00000000        95.95000000         42
Mo         4.58361109       7.77997277       4.61370972         1.04494257      -0.76410315       3.23712971         0.00000000       0.00000000       0.00000000        95.95000000         42
Mo         4.83951092       7.87140269       8.17446807        -0.99162506      -1.44619127      -1.43624966         0.00000000       0.00000000       0.00000000        95.95000000         42
Mo         7.80631025       1.37208197       1.78816135         1.26004214       1.84576973       0.56501161         0.00000000       0.00000000       0.00000000        95.95000000         42
Mo         7.37097153       1.55909986       4.93138499         4.09132106       0.54166573      -0.47008225         0.00000000       0.00000000       0.00000000        95.95000000         42
Mo         8.15944237       1.33655896       7.81311434        -0.42642230       2.37643159      -0.72902168         0.00000000       0.00000000       0.00000000        95.95000000         42
Mo         8.00025509       4.90492465       1.81536824         0.97256053      -2.52964208      -1.55705871         0.00000000       0.00000000       0.00000000        95.95000000         42
Mo         7.91777443       4.77213155       4.81871120         0.10999881      -0.93968981      -1.06374568         0.00000000       0.00000000       0.00000000        95.95000000         42
Mo         7.47411960       4.42507586       7.77101405         7.82590462       1.07226538      -2.58823262         0.00000000       0.00000000       0.00000000        95.95000000         42
Mo         8.03608049       8.13397430       1.93862617        -0.66047094      -1.90277296      -2.54173168         0.00000000       0.00000000       0.00000000        95.95000000         42
Mo         9.30940870       6.24188997       6.33086286         2.03516762      -0.38820302       1.26741067         0.00000000       0.00000000       0.00000000        95.95000000         42
Mo         7.82714777       7.90003655       8.08892557        -0.54073226      -0.71883170       1.47035095         0.00000000       0.00000000       0.00000000        95.95000000         42
53
pbc=[T, T, T] energy=-568.11906016 Lattice="9.45012100 0.00000000 0.00000000 0.00000000 9.45012100 0.00000000 0.00000000 0.00000000 9.45012100" Properties=species:S:1:pos:R:3:force:R:3:momenta:R:3:masses:R:1:Z:I:1
Mo         0.05337428       9.43811935       3.17314273        -0.94686918       0.45455152       0.12067735         0.00000000       0.00000000       0.00000000        95.95000000         42
Mo         0.07662158       9.38620038       6.40286333        -1.09832121       0.83842503      -0.12647141         0.00000000       0.00000000       0.00000000        95.95000000         42
Mo         0.05815604       3.15033014       0.00437541        -1.22491120       0.27936688      -0.01365883         0.00000000       0.00000000       0.00000000        95.95000000         42
Mo         0.06192664       3.10637762       3.08690092        -1.57843091       0.99620335       1.42968576         0.00000000       0.00000000       0.00000000        95.95000000         42
Mo         0.07392830       3.07654359       6.27770593        -1.37734411       1.06227416       0.60933832         0.00000000       0.00000000       0.00000000        95.95000000         42
Mo         0.09282854       6.33558792       9.42144933        -1.36133198       0.55632452       0.29684834         0.00000000       0.00000000       0.00000000        95.95000000         42
Mo         0.06020672       6.29682352       3.08771364        -1.12353248       0.53152857       1.22917869         0.00000000       0.00000000       0.00000000        95.95000000         42
Mo         0.07716024       6.24669063       6.28979263        -1.43013105       0.54997127      -0.01677188         0.00000000       0.00000000       0.00000000        95.95000000         42
Mo         3.21420350       9.40355080       9.38556722        -0.48769790       0.35552589       0.71848661         0.00000000       0.00000000       0.00000000        95.95000000         42
Mo         3.22693282       9.45003595       3.11965504        -0.83801380      -0.01042860       0.38790203         0.00000000       0.00000000       0.00000000        95.95000000         42
Mo         3.15799419       9.34872120       6.26139502         0.06725938       1.12163110       0.56395851         0.00000000       0.00000000       0.00000000        95.95000000         42
Mo         3.20474393       3.08229872       0.02871892        -0.73094697       0.87925956      -0.57357148         0.00000000       0.00000000       0.00000000        95.95000000         42
Mo         3.12141277       3.06493884       3.09211739        -0.21199985       0.91931900       0.67858288         0.00000000       0.00000000       0.00000000        95.95000000         42
Mo         3.17439015       3.12588267       6.21649750        -0.72370098      -0.37435908       1.31351815         0.00000000       0.00000000       0.00000000        95.95000000         42
Mo         3.15227686       6.23174999       9.32407529         0.13021194       0.95741344       1.27033032         0.00000000       0.00000000       0.00000000        95.95000000         42
Mo         3.16975014       6.21897343       3.08786484        -0.76066340       1.30476658       0.26826216         0.00000000       0.00000000       0.00000000        95.95000000         42
Mo         3.16473212       6.18847789       6.21646915        -0.30374031       1.28406226       0.58584263         0.00000000       0.00000000       0.00000000        95.95000000         42
Mo         6.47533631       9.41578871       9.44272156        -1.39517510       0.55582235       0.42112857         0.00000000       0.00000000       0.00000000        95.95000000         42
Mo         6.33566352       9.41164011       3.15096330        -0.16919631       0.83582388       0.28099866         0.00000000       0.00000000       0.00000000        95.95000000         42
Mo         6.37228274       9.39035843       6.26959773        -1.01365474       0.71915350       0.97498609         0.00000000       0.00000000       0.00000000        95.95000000         42
Mo         6.30775731       3.14380010       0.00945957         0.23489977       0.36092992      -0.28508900         0.00000000       0.00000000       0.00000000        95.95000000         42
Mo         6.20168916       3.11675386       3.07054277         1.34727195       0.30786287       0.98688272         0.00000000       0.00000000       0.00000000        95.95000000         42
Mo         6.28927288       3.10605632       6.18842119         0.16791297       0.39340062       1.46496653         0.00000000       0.00000000       0.00000000        95.95000000         42
Mo         6.34334647       6.24245698       9.37659906        -0.48434855       1.21418573       0.65765695         0.00000000       0.00000000       0.00000000        95.95000000         42
Mo         6.26977728       6.21897343       3.10657608         0.34132288       1.19068917       0.31961225         0.00000000       0.00000000       0.00000000        95.95000000         42
Mo         6.30587674       6.17655183       6.16159229        -0.11356164       1.35130373       1.32022683         0.00000000       0.00000000       0.00000000        95.95000000         42
Mo         1.54469788       1.69204417       1.67565766         0.56939213      -1.95850885      -1.58654709         0.00000000       0.00000000       0.00000000        95.95000000         42
Mo         1.44909100       1.54010512       4.79068214         2.10182672       0.00500942      -0.37747091         0.00000000       0.00000000       0.00000000        95.95000000         42
Mo         1.54620045       1.71048135       7.95213507         0.45033631      -2.09948565      -0.30924151         0.00000000       0.00000000       0.00000000        95.95000000         42
Mo         1.45013997       4.79238316       1.56809638         2.22299213      -0.39569713      -0.43233576         0.00000000       0.00000000       0.00000000        95.95000000         42
Mo         1.50025396       4.72505105       4.70948670         0.76206342      -0.44113596      -0.31717149         0.00000000       0.00000000       0.00000000        95.95000000         42
Mo         1.51564821       4.73062662       7.86183916         0.95803142      -0.11733525      -0.09664728         0.00000000       0.00000000       0.00000000        95.95000000         42
Mo         1.58333942       7.98472854       1.73197093         0.12561821      -0.64575343      -2.34296544         0.00000000       0.00000000       0.00000000        95.95000000         42
Mo         1.50828656       7.88280898       4.74570901         1.04768963      -0.51582496      -0.03414413         0.00000000       0.00000000       0.00000000        95.95000000         42
Mo         1.57174412       7.86838810       7.84556606         0.35960326       0.26758515       0.86265718         0.00000000       0.00000000       0.00000000        95.95000000         42
Mo         4.75939279       1.58644851       1.54444273        -0.34567578      -0.53250141       0.27659739         0.00000000       0.00000000       0.00000000        95.95000000         42
Mo         4.69625653       1.59972593       4.75286276         0.10688376      -0.78190536      -0.52075568         0.00000000       0.00000000       0.00000000        95.95000000         42
Mo         4.71355025       1.59862972       7.93375458         0.13572172      -0.42473335      -1.02834829         0.00000000       0.00000000       0.00000000        95.95000000         42
Mo         4.68592755       4.74642722       1.57198983         0.06430630      -0.30602524      -0.63317669         0.00000000       0.00000000       0.00000000        95.95000000         42
Mo         4.56866100       4.69513197       4.67061835         1.91546547       0.02477077       0.13128684         0.00000000       0.00000000       0.00000000        95.95000000         42
Mo         4.67168622       4.72787664       7.91664987         0.58904034      -0.33918564      -1.11696893         0.00000000       0.00000000       0.00000000        95.95000000         42
Mo         4.73071167       7.93056044       1.62242512        -0.06677003      -0.90655613      -1.01935598         0.00000000       0.00000000       0.00000000        95.95000000         42
Mo         4.67502211       7.94950794       4.70520580         0.51790990      -1.51347211       0.22018297         0.00000000       0.00000000       0.00000000        95.95000000         42
Mo         4.74536881       7.91806738       7.87987944         0.04302116      -0.93074396      -0.40518620         0.00000000       0.00000000       0.00000000        95.95000000         42
Mo         7.86402214       1.70403637       1.68783886         0.21829299      -1.21660612      -0.93289660         0.00000000       0.00000000       0.00000000        95.95000000         42
Mo         7.89409243       1.57724410       4.85731494        -0.36415308       0.18896501      -1.29994342         0.00000000       0.00000000       0.00000000        95.95000000         42
Mo         7.79123731       1.66282439       7.95482835         1.30159312      -0.71406225      -0.41347922         0.00000000       0.00000000       0.00000000        95.95000000         42
Mo         7.89636991       4.84684421       1.60846729        -0.54469239      -1.08967211      -0.47981062         0.00000000       0.00000000       0.00000000        95.95000000         42
Mo         7.86611062       4.75061363       4.71585608        -0.03947160      -0.49565107      -0.14723221         0.00000000       0.00000000       0.00000000        95.95000000         42
Mo         7.83808156       4.78259284       7.94966859         0.41392029      -0.67160682      -1.18289277         0.00000000       0.00000000       0.00000000        95.95000000         42
Mo         7.81120542       7.93184566       1.69530446         1.22191803      -0.40995899      -1.33210527         0.00000000       0.00000000       0.00000000        95.95000000         42
Mo         7.83871472       7.99505752       4.77608170         0.51011820      -2.01848861      -0.39045609         0.00000000       0.00000000       0.00000000        95.95000000         42
Mo         7.87023087       7.92495652       7.90122727         0.80971115      -0.59642715       0.02489946         0.00000000       0.00000000       0.00000000        95.95000000         42
53
pbc=[T, T, T] energy=-545.71746001 Lattice="9.45012100 0.00000000 0.00000000 0.00000000 9.45012100 0.00000000 0.00000000 0.00000000 9.45012100" Properties=species:S:1:pos:R:3:force:R:3:momenta:R:3:masses:R:1:Z:I:1
Mo         1.31738467       1.55534816       1.62646033         3.86400614       0.65583506      -1.82880923         0.00000000       0.00000000       0.00000000        95.95000000         42
Mo         0.05627547       9.28777737       5.67763270        -2.89658911      -2.49464351       2.99204959         0.00000000       0.00000000       0.00000000        95.95000000         42
Mo         0.02491052       3.17739528       0.01304117         0.05829588      -0.03758936       0.11600600         0.00000000       0.00000000       0.00000000        95.95000000         42
Mo         9.26802662       2.96423835       3.08273342         2.57575329       1.57205037       1.48027117         0.00000000       0.00000000       0.00000000        95.95000000         42
Mo         9.38157927       2.82433876       6.52497780        -0.80836753       1.37034884      -1.12626923         0.00000000       0.00000000       0.00000000        95.95000000         42
Mo         0.06642490       6.76394301       0.02973953        -2.23095761      -4.49707918       0.26009319         0.00000000       0.00000000       0.00000000        95.95000000         42
Mo         9.32095675       6.22267788       3.49368138         1.34543113       1.12755549      -0.30818987         0.00000000       0.00000000       0.00000000        95.95000000         42
Mo         1.64411315       7.57657781       4.94653354         0.06200192      -0.24364641      -2.49810758         0.00000000       0.00000000       0.00000000        95.95000000         42
Mo         1.40926819       1.31702556       7.67338485        -0.02746570       0.72960753       3.45471446         0.00000000       0.00000000       0.00000000        95.95000000         42
Mo         3.04960130       0.09786545       3.28935087        -1.31458023      -0.37943298       0.14041084         0.00000000       0.00000000       0.00000000        95.95000000         42
Mo         2.91070342       9.29151017       6.31167912         2.71686062       0.67511017      -1.21467938         0.00000000       0.00000000       0.00000000        95.95000000         42
Mo         3.33731968       2.96811290       0.24557084        -1.99035061       1.22735658      -1.87231517         0.00000000       0.00000000       0.00000000        95.95000000         42
Mo         3.13892384       3.09687080       3.28833025         0.08909606       0.42811381      -0.73444995         0.00000000       0.00000000       0.00000000        95.95000000         42
Mo         2.87222253       2.94992142       6.54031534         0.59183118       2.52954564      -2.35045832         0.00000000       0.00000000       0.00000000        95.95000000         42
Mo         3.22031773       6.34164545       0.54360876        -0.51699541      -0.28830143      -4.62533362         0.00000000       0.00000000       0.00000000        95.95000000         42
Mo         3.17768824       6.22214867       3.17081800         0.03893130       0.47705918       3.02837369         0.00000000       0.00000000       0.00000000        95.95000000         42
Mo         3.30028466       6.24183327       6.58643193        -1.55544664       0.21039634      -0.85323031         0.00000000       0.00000000       0.00000000        95.95000000         42
Mo         5.98519633       0.12551651       9.43819495         1.27192196      -1.53882248       1.88322801         0.00000000       0.00000000       0.00000000        95.95000000         42
Mo         6.80678040       9.10217699       3.54365362        -1.71566501      -0.86522760      -3.02926711         0.00000000       0.00000000       0.00000000        95.95000000         42
Mo         6.67128457       9.37545559       5.86152260        -2.80314433      -3.69633344       5.51845622         0.00000000       0.00000000       0.00000000        95.95000000         42
Mo         6.53337895       3.00984464       9.39091599        -2.77319101       2.00778587       1.68911438         0.00000000       0.00000000       0.00000000        95.95000000         42
Mo         6.43341557       3.19183507       3.10009329        -3.16017895      -0.21361258       1.20183711         0.00000000       0.00000000       0.00000000        95.95000000         42
Mo         6.45765513       3.42281493       6.72279718        -2.48253033      -1.27751588      -2.96254776         0.00000000       0.00000000       0.00000000        95.95000000         42
Mo         6.09464764       6.34934730       0.22473333         2.54959669      -0.28027622       0.37143363         0.00000000       0.00000000       0.00000000        95.95000000         42
Mo         6.42799120       6.27429444       3.74167146        -0.12185278      -0.00900704      -1.51744933         0.00000000       0.00000000       0.00000000        95.95000000         42
Mo         6.15206657       6.33566352       6.44303580         1.74846323       0.17816458       0.96836957         0.00000000       0.00000000       0.00000000        95.95000000         42
Mo         3.02140214       9.44330746       9.36108196         0.01355496       0.32025540       1.63828739         0.00000000       0.00000000       0.00000000        95.95000000         42
Mo         1.29463823       1.54108793       4.71805796         3.11233664       1.40213659      -1.36325025         0.00000000       0.00000000       0.00000000        95.95000000         42
Mo         9.31295249       0.13604394       0.06433642         0.55292444      -1.13745218      -0.51997430         0.00000000       0.00000000       0.00000000        95.95000000         42
Mo         1.57060066       4.67720509       1.47001357        -0.61504779      -0.50562781       1.44388639         0.00000000       0.00000000       0.00000000        95.95000000         42
Mo         1.53044710       4.56295312       4.58152261        -0.12844969       0.31690017       1.43970930         0.00000000       0.00000000       0.00000000        95.95000000         42
Mo         1.45402397       4.77865214       7.68107725         1.73258772      -1.46503411       4.20809259         0.00000000       0.00000000       0.00000000        95.95000000         42
Mo         1.52092137       7.75393768       1.56683951         0.51742131       2.85489972       2.47744033         0.00000000       0.00000000       0.00000000        95.95000000         42
Mo         9.42564519       9.44141744       2.89689679         0.56965871      -1.19582695       2.45258514         0.00000000       0.00000000       0.00000000        95.95000000         42
Mo         1.53030534       7.93314033       7.81157397        -0.32396598      -1.18283068       1.68049794         0.00000000       0.00000000       0.00000000        95.95000000         42
Mo         4.70803138       1.59136258       1.61669835         0.14189721       0.06850290       1.85733484         0.00000000       0.00000000       0.00000000        95.95000000         42
Mo         4.73458622       1.63532454       4.79197681        -0.24463491      -0.14628258      -1.15452351         0.00000000       0.00000000       0.00000000        95.95000000         42
Mo         4.75089713       1.65083219       7.18880155         0.13081869      -2.26430002       3.98123223         0.00000000       0.00000000       0.00000000        95.95000000         42
Mo         4.82651700       4.78114697       1.73031716        -0.05414092      -1.31208969       0.81137430         0.00000000       0.00000000       0.00000000        95.95000000         42
Mo         4.65868285       4.87547808       4.90729663         0.27501232      -2.39422814      -0.12568960         0.00000000       0.00000000       0.00000000        95.95000000         42
Mo         4.51395425       4.71408891       8.16945950         1.50382486      -0.38690475      -0.65092055         0.00000000       0.00000000       0.00000000        95.95000000         42
Mo         4.58289288       8.25373568       2.07706099         1.59059842      -1.74325517      -2.32003514         0.00000000       0.00000000       0.00000000        95.95000000         42
Mo         4.81205831       7.98077839       4.83329274        -3.05626675      -1.32279297       1.05863313         0.00000000       0.00000000       0.00000000        95.95000000         42
Mo         4.68889489       7.84431864       8.27283438        -0.74820919       0.51359332      -2.91472152         0.00000000       0.00000000       0.00000000        95.95000000         42
Mo         7.78019012       1.62937096       1.54238260        -0.55486095      -1.38575375       0.10792851         0.00000000       0.00000000       0.00000000        95.95000000         42
Mo         7.68477225       1.51364478       4.72082685         3.46591085       5.59076693      -0.71175400         0.00000000       0.00000000       0.00000000        95.95000000         42