53
pbc=[T, T, T] energy=-569.56177802 Lattice="9.45012100 0.00000000 0.00000000 0.00000000 9.45012100 0.00000000 0.00000000 0.00000000 9.45012100" Properties=species:S:1:pos:R:3:force:R:3:momenta:R:3:masses:R:1:Z:I:1
Mo         9.40451472       9.40474152       3.10470495         0.62737967       0.61553514       0.50337361         0.00000000       0.00000000       0.00000000        95.95000000         42
Mo         9.39866509       9.40605509       6.29851510         0.67928488       0.58991092       0.76121351         0.00000000       0.00000000       0.00000000        95.95000000         42
Mo         9.40253019       3.09582184       9.40899407         0.65054693       0.57570951       0.56401081         0.00000000       0.00000000       0.00000000        95.95000000         42
Mo         9.40625354       3.11632860       3.12303819         0.54840876       0.21804662       0.16336519         0.00000000       0.00000000       0.00000000        95.95000000         42
Mo         9.40497777       3.11431573       6.22651462         0.60882331       0.42792014       1.33655269         0.00000000       0.00000000       0.00000000        95.95000000         42
Mo         9.39859894       6.29609587       9.40555423         0.68577033       0.79876552       0.60830620         0.00000000       0.00000000       0.00000000        95.95000000         42
Mo         9.40961778       6.22153441       3.11359752         0.56319211       1.39094233       0.44260005         0.00000000       0.00000000       0.00000000        95.95000000         42
Mo         9.40883342       6.24215457       6.24246643         0.62786247       1.08193786       1.06348494         0.00000000       0.00000000       0.00000000        95.95000000         42
Mo         3.09654950       9.40862552       9.41064784         0.63330399       0.55198240       0.53684184         0.00000000       0.00000000       0.00000000        95.95000000         42
Mo         3.11630025       9.41309543       3.12464471         0.27338540       0.49371660       0.13868276         0.00000000       0.00000000       0.00000000        95.95000000         42
Mo         3.10426080       9.41360573       6.22239437         0.56581201       0.47259556       1.41602091         0.00000000       0.00000000       0.00000000        95.95000000         42
Mo         3.11319116       3.12134662       9.41479645         0.28082261       0.17723692       0.43231438         0.00000000       0.00000000       0.00000000        95.95000000         42
Mo         3.09492408       3.10499791       3.10366544         0.48516324       0.39708736       0.40391853         0.00000000       0.00000000       0.00000000        95.95000000         42
Mo         3.09252375       3.09976254       6.26013816         0.65788949       0.57806954       0.79926787         0.00000000       0.00000000       0.00000000        95.95000000         42
Mo         3.10442145       6.22216757       9.41659197         0.54491509       1.43284949       0.43669104         0.00000000       0.00000000       0.00000000        95.95000000         42
Mo         3.09580294       6.26160292       3.10196442         0.64512838       0.78845115       0.53246155         0.00000000       0.00000000       0.00000000        95.95000000         42
Mo         3.09837337       6.25852218       6.25620690         0.79959939       0.75445610       0.78494060         0.00000000       0.00000000       0.00000000        95.95000000         42
Mo         6.29106840       9.40873892       9.40658429         0.91899090       0.55741050       0.54849595         0.00000000       0.00000000       0.00000000        95.95000000         42
Mo         6.21670540       9.41396484       3.11006317         1.54791437       0.49695549       0.49511264         0.00000000       0.00000000       0.00000000        95.95000000         42
Mo         6.22939691       9.41789609       6.23978259         1.25943620       0.47463207       1.07042377         0.00000000       0.00000000       0.00000000        95.95000000         42
Mo         6.21723461       3.10753999       9.41325608         1.51706925       0.54978822       0.46579914         0.00000000       0.00000000       0.00000000        95.95000000         42
Mo         6.24579287       3.10159586       3.10200222         0.99630300       0.57368947       0.56027110         0.00000000       0.00000000       0.00000000        95.95000000         42
Mo         6.25299386       3.10272988       6.25824813         0.79287825       0.77721537       0.71437105         0.00000000       0.00000000       0.00000000        95.95000000         42
Mo         6.22849915       6.24289168       9.42390636         1.29420447       1.03874422       0.40800290         0.00000000       0.00000000       0.00000000        95.95000000         42
Mo         6.25474214       6.25661326       3.10352369         0.81032324       0.74675871       0.77812862         0.00000000       0.00000000       0.00000000        95.95000000         42
Mo         6.25814418       6.26590273       6.26850151         0.68690745       0.57425375       0.55208858         0.00000000       0.00000000       0.00000000        95.95000000         42
Mo         1.61765281       1.59794931       1.60121905        -0.46385828      -0.23955706      -0.26284399         0.00000000       0.00000000       0.00000000        95.95000000         42
Mo         1.57991848       1.57463586       4.79042699        -0.08825149       0.05163797      -1.02513394         0.00000000       0.00000000       0.00000000        95.95000000         42
Mo         1.61956174       1.60670957       7.93404754        -0.63212754      -0.48421881      -0.64068774         0.00000000       0.00000000       0.00000000        95.95000000         42
Mo         1.58076899       4.79168385       1.57131887        -0.07519115      -1.06430570       0.08095725         0.00000000       0.00000000       0.00000000        95.95000000         42
Mo         1.60512195       4.76942882       4.76550702        -0.38607641      -0.85528962      -0.79899107         0.00000000       0.00000000       0.00000000        95.95000000         42
Mo         1.59935738       4.78863146       7.93130700        -0.41468542      -0.97322875      -0.99945378         0.00000000       0.00000000       0.00000000        95.95000000         42
Mo         1.61879628       7.93523825       1.61536588        -0.60050288      -0.67092079      -0.57556577         0.00000000       0.00000000       0.00000000        95.95000000         42
Mo         1.60122850       7.93436884       4.78332995        -0.42371027      -1.03588513      -0.87268367         0.00000000       0.00000000       0.00000000        95.95000000         42
Mo         1.64574802       7.92288695       7.92254674        -1.09033812      -0.41580036      -0.40681784         0.00000000       0.00000000       0.00000000        95.95000000         42
Mo         4.79784533       1.58278187       1.57450356        -1.13762686      -0.07946836      -0.00363535         0.00000000       0.00000000       0.00000000        95.95000000         42
Mo         4.76919257       1.59725000       4.76298384        -0.91158717      -0.23797794      -0.77144767         0.00000000       0.00000000       0.00000000        95.95000000         42
Mo         4.79591751       1.59931013       7.92386976        -1.08850732      -0.39771661      -0.90914881         0.00000000       0.00000000       0.00000000        95.95000000         42
Mo         4.77220715       4.76808690       1.59600259        -0.93048827      -0.80881700      -0.21711746         0.00000000       0.00000000       0.00000000        95.95000000         42
Mo         4.76938157       4.76588502       4.76706629        -0.75381571      -0.67826067      -0.69363202         0.00000000       0.00000000       0.00000000        95.95000000         42
Mo         4.76322954       4.76116941       7.94957409        -0.77651579      -0.71962978      -1.26373602         0.00000000       0.00000000       0.00000000        95.95000000         42
Mo         4.80011336       7.93405699       1.59777921        -1.12487180      -1.00902492      -0.37492021         0.00000000       0.00000000       0.00000000        95.95000000         42
Mo         4.76541252       7.94858182       4.75748387        -0.79248545      -1.27966042      -0.67055598         0.00000000       0.00000000       0.00000000        95.95000000         42
Mo         4.79962195       7.91183030       7.91442909        -1.08211478      -0.64754350      -0.68814149         0.00000000       0.00000000       0.00000000        95.95000000         42
Mo         7.94251485       1.60989426       1.61044237        -0.72202237      -0.55407334      -0.54724405         0.00000000       0.00000000       0.00000000        95.95000000         42
Mo         7.93033364       1.59766581       4.78584368        -1.00912139      -0.38172465      -0.93975940         0.00000000       0.00000000       0.00000000        95.95000000         42
Mo         7.93112745       1.64321539       7.91344627        -0.49566326      -1.09127370      -0.29452768         0.00000000       0.00000000       0.00000000        95.95000000         42
Mo         7.93564461       4.78754470       1.59999054        -1.06380566      -0.97797063      -0.40877734         0.00000000       0.00000000       0.00000000        95.95000000         42
Mo         7.95457320       4.75822097       4.75863678        -1.37308616      -0.69242711      -0.68479302         0.00000000       0.00000000       0.00000000        95.95000000         42
Mo         7.92118592       4.79164605       7.90935437        -0.84114840      -0.95421413      -0.60593603         0.00000000       0.00000000       0.00000000        95.95000000         42
Mo         7.93390579       7.92002356       1.64203412        -0.50316771      -0.35433851      -1.08674857         0.00000000       0.00000000       0.00000000        95.95000000         42
Mo         7.92307595       7.90837156       4.78865036        -0.84826479      -0.62559470      -0.91563121         0.00000000       0.00000000       0.00000000        95.95000000         42
Mo         7.91031828       7.90301334       7.90123672        -0.07228074       0.04262330       0.06023262         0.00000000       0.00000000       0.00000000        95.95000000         42
53
pbc=[T, T, T] energy=-568.07099758 Lattice="9.45012100 0.00000000 0.00000000 0.00000000 9.45012100 0.00000000 0.00000000 0.00000000 9.45012100" Properties=species:S:1:pos:R:3:force:R:3:momenta:R:3:masses:R:1:Z:I:1
Mo         0.07240683       9.39410068       3.02672255        -1.08681761       0.31957424       0.81021729         0.00000000       0.00000000       0.00000000        95.95000000         42
Mo         9.40303105       9.39330687       6.31311553         0.73200059       0.80322900      -0.28331738         0.00000000       0.00000000       0.00000000        95.95000000         42
Mo         0.01082984       3.11570489       0.00048196         0.13564447       0.31204388       0.15637334         0.00000000       0.00000000       0.00000000        95.95000000         42
Mo         0.18266139       3.05787015       3.09755121        -2.23159142       0.77724277      -0.01881128         0.00000000       0.00000000       0.00000000        95.95000000         42
Mo         0.04354616       3.13665581       6.31922976        -0.79973815      -0.06769816      -0.42687652         0.00000000       0.00000000       0.00000000        95.95000000         42
Mo         9.42167614       6.36064964       0.00496131         0.33300333       0.20930050       0.03702875         0.00000000       0.00000000       0.00000000        95.95000000         42
Mo         0.04693875       6.24863736       3.17085580        -0.62790859       1.01330546      -0.42361389         0.00000000       0.00000000       0.00000000        95.95000000         42
Mo         0.12855000       6.17910337       6.31815245        -1.88832232       2.12443045      -0.28454816         0.00000000       0.00000000       0.00000000        95.95000000         42
Mo         3.05127397       9.34417569       9.38651224         0.11171054       1.22937793       0.43721951         0.00000000       0.00000000       0.00000000        95.95000000         42
Mo         3.17498550       9.41793389       3.24885710        -0.34717468       0.39152447      -1.33171075         0.00000000       0.00000000       0.00000000        95.95000000         42
Mo         3.21735040       9.40321060       6.27218706        -1.38428499       0.67600740       0.46611419         0.00000000       0.00000000       0.00000000        95.95000000         42
Mo         3.21374045       3.14825111       0.00640718        -1.61452740      -0.22955643       0.42618847         0.00000000       0.00000000       0.00000000        95.95000000         42
Mo         3.29939635       3.17880335       3.21086761        -1.50798261      -0.55423183      -0.90483316         0.00000000       0.00000000       0.00000000        95.95000000         42
Mo         3.19046480       3.16882402       6.30198329        -0.54890808      -0.07729830       0.08898517         0.00000000       0.00000000       0.00000000        95.95000000         42
Mo         3.19101291       6.23216580       0.10240151        -1.07682385       1.21063516      -1.42116249         0.00000000       0.00000000       0.00000000        95.95000000         42
Mo         3.21591398       6.23708931       3.13751577        -0.87520788       1.15912297       0.88789702         0.00000000       0.00000000       0.00000000        95.95000000         42
Mo         3.18720451       6.19899587       6.33401920        -0.48028792       1.41895810      -0.30259861         0.00000000       0.00000000       0.00000000        95.95000000         42
Mo         6.26825581       0.04017246       9.38536877        -0.09455625      -0.71643651       0.58402489         0.00000000       0.00000000       0.00000000        95.95000000         42
Mo         6.36428794       9.42812112       3.14744785        -1.03334526       0.04649572      -0.44512405         0.00000000       0.00000000       0.00000000        95.95000000         42
Mo         6.38194076       0.00550942       6.31640418        -1.25081257       0.05857408      -0.27075337         0.00000000       0.00000000       0.00000000        95.95000000         42
Mo         6.30498843       3.10812590       0.03866990        -0.02451020       0.69476433       0.21961629         0.00000000       0.00000000       0.00000000        95.95000000         42
Mo         6.38048545       3.05768115       3.16997694        -0.07875249       0.84626141      -0.35069000         0.00000000       0.00000000       0.00000000        95.95000000         42
Mo         6.34428203       3.16729310       6.48039213        -0.25582994      -0.12108945      -2.07494327         0.00000000       0.00000000       0.00000000        95.95000000         42
Mo         6.34948905       6.27258396       0.13091253        -0.89124043       0.54116720      -1.57742114         0.00000000       0.00000000       0.00000000        95.95000000         42
Mo         6.38479470       6.31121606       3.28102531        -0.76928404       0.02738430      -1.95872241         0.00000000       0.00000000       0.00000000        95.95000000         42
Mo         6.29728658       6.26804791       6.27892500         0.44416844       0.81658294       1.06766818         0.00000000       0.00000000       0.00000000        95.95000000         42
Mo         1.56635756       1.43710825       1.57740475         0.09705997       1.19278945      -0.74250184         0.00000000       0.00000000       0.00000000        95.95000000         42
Mo         1.49030298       1.69247887       4.70579170         1.39746424      -1.58942522       0.32727973         0.00000000       0.00000000       0.00000000        95.95000000         42
Mo         1.56225620       1.71268323       7.83198623        -0.06425836      -1.46696619       0.35851443         0.00000000       0.00000000       0.00000000        95.95000000         42
Mo         1.49199455       4.81225677       1.60991316         1.24183994      -1.37658296      -0.25519041         0.00000000       0.00000000       0.00000000        95.95000000         42
Mo         1.45950504       4.73069277       4.74122966         2.63311936      -0.24493911      -0.21353493         0.00000000       0.00000000       0.00000000        95.95000000         42
Mo         1.53919791       4.82019487       7.96775612         0.98401865      -1.04593503      -0.49332240         0.00000000       0.00000000       0.00000000        95.95000000         42
Mo         1.58624061       7.91640416       1.54995215        -0.61710061      -0.70027213      -0.15401075         0.00000000       0.00000000       0.00000000        95.95000000         42
Mo         1.53250722       7.93279067       4.68907444         0.82884783      -0.83271805       0.38382167         0.00000000       0.00000000       0.00000000        95.95000000         42
Mo         1.44234362       7.90456316       7.80155684         0.83491949       0.10038614       0.88252085         0.00000000       0.00000000       0.00000000        95.95000000         42
Mo         4.58832670       1.50689739       1.48817670         1.53173878       0.58760260       1.23639498         0.00000000       0.00000000       0.00000000        95.95000000         42
Mo         4.68215695       1.60368553       4.74632327         1.00515292      -0.16054528       0.00559814         0.00000000       0.00000000       0.00000000        95.95000000         42
Mo         4.62578698       1.60840114       7.88792150         1.13341386      -0.34655202      -0.44355666         0.00000000       0.00000000       0.00000000        95.95000000         42
Mo         4.66203764       4.77215045       1.55569782         1.44071311      -1.31712459       0.71660277         0.00000000       0.00000000       0.00000000        95.95000000         42
Mo         4.79631441       4.78560743       4.66385207        -0.56879099      -1.03967624       1.23235274         0.00000000       0.00000000       0.00000000        95.95000000         42
Mo         4.65978851       4.72635517       7.93561626         1.40821441       0.30930336      -0.51127008         0.00000000       0.00000000       0.00000000        95.95000000         42
Mo         4.62707220       7.84879800       1.57008090         1.21304159       0.44459890       0.45152438         0.00000000       0.00000000       0.00000000        95.95000000         42
Mo         4.70648156       7.93379238       4.73170394         0.56292883      -0.78951406       0.17687191         0.00000000       0.00000000       0.00000000        95.95000000         42
Mo         4.60989188       7.94836447       7.87738461         1.16843941      -1.31515790      -0.19724959         0.00000000       0.00000000       0.00000000        95.95000000         42
Mo         7.86683828       1.55805090       1.45377826         0.12213483      -0.09092789       0.81025803         0.00000000       0.00000000       0.00000000        95.95000000         42
Mo         7.84261762       1.49609591       4.66186754         0.56332353       1.11899119       0.45900238         0.00000000       0.00000000       0.00000000        95.95000000         42
Mo         7.84866569       1.65564230       7.86650752         0.39984255      -0.85330975       0.06928421         0.00000000       0.00000000       0.00000000        95.95000000         42
Mo         7.86294483       4.78114697       1.54410252        -0.03383453      -1.11416870       0.48688961         0.00000000       0.00000000       0.00000000        95.95000000         42
Mo         7.89517919       4.77064788       4.69157872        -0.04034535      -1.32490077       0.40623111         0.00000000       0.00000000       0.00000000        95.95000000         42
Mo         7.98181790       4.78340555       7.83133417        -1.65564110      -0.42435190       0.85832829         0.00000000       0.00000000       0.00000000        95.95000000         42
Mo         7.76884052       7.89177715       1.53834740         1.19217397       0.25965096       0.08740965         0.00000000       0.00000000       0.00000000        95.95000000         42
Mo         7.89416803       7.89715427       4.67211147         0.03816996      -0.38454054       0.71973350         0.00000000       0.00000000       0.00000000        95.95000000         42
Mo         7.81152672       7.92706390       7.85598954         0.29479302      -0.50538591       0.23581169         0.00000000       0.00000000       0.00000000        95.95000000         42
53
pbc=[T, T, T] energy=-568.94673727 Lattice="9.45012100 0.00000000 0.00000000 0.00000000 9.45012100 0.00000000 0.00000000 0.00000000 9.45012100" Properties=species:S:1:pos:R:3:force:R:3:momenta:R:3:masses:R:1:Z:I:1
Mo         9.43346989       9.39892024       3.03227923         0.11449720       0.80474717       1.30516268         0.00000000       0.00000000       0.00000000        95.95000000         42
Mo         0.02788731       9.40748205       6.30256920        -0.35942935       0.55486930       0.38042017         0.00000000       0.00000000       0.00000000        95.95000000         42
Mo         9.44085988       3.03780755       9.37892379         0.10517012       1.10730208       1.10456306         0.00000000       0.00000000       0.00000000        95.95000000         42
Mo         0.04506763       3.17475870       3.15631206        -0.27159548      -0.64289384      -0.37451611         0.00000000       0.00000000       0.00000000        95.95000000         42
Mo         0.03797059       3.10766284       6.20942881        -0.20331545       0.29884099       1.61792392         0.00000000       0.00000000       0.00000000        95.95000000         42
Mo         0.02694229       6.33800715       9.38753285        -0.30072165      -0.07451321       0.80015660         0.00000000       0.00000000       0.00000000        95.95000000         42
Mo         0.03876440       6.23911164       3.09023682        -0.26618790       1.18276223       0.42786507         0.00000000       0.00000000       0.00000000        95.95000000         42
Mo         0.01159530       6.25531859       6.22229987        -0.15838920       0.79039572       1.16830132         0.00000000       0.00000000       0.00000000        95.95000000         42
Mo         3.07099637       9.39915650       9.38293064         0.15574373       0.95902014       1.17204454         0.00000000       0.00000000       0.00000000        95.95000000         42
Mo         3.23419051       9.44789077       3.15226741        -1.61178239       0.52384210      -0.03697610         0.00000000       0.00000000       0.00000000        95.95000000         42
Mo         3.16243574       9.40984458       6.22219592        -0.46698610       0.91018556       1.27190328         0.00000000       0.00000000       0.00000000        95.95000000         42
Mo         3.22369143       3.16393831       9.44342086        -1.39889305      -0.23170374       0.62281552         0.00000000       0.00000000       0.00000000        95.95000000         42
Mo         3.16684895       3.11595060       3.10872125        -0.38508820       0.30177276       0.49618427         0.00000000       0.00000000       0.00000000        95.95000000         42
Mo         3.22751873       3.17365304       6.29553831        -1.33073599      -0.44126785       0.24322130         0.00000000       0.00000000       0.00000000        95.95000000         42
Mo         3.16643314       6.25067858       9.40082917        -0.59322610       0.78803624       1.03993602         0.00000000       0.00000000       0.00000000        95.95000000         42
Mo         3.23596713       6.30876848       3.15697357        -1.52121606       0.01389740      -0.21032634         0.00000000       0.00000000       0.00000000        95.95000000         42
Mo         3.19088061       6.26919137       6.24533927        -0.95373157       0.50853708       0.86871821         0.00000000       0.00000000       0.00000000        95.95000000         42
Mo         6.37326555       9.42342441       9.40742535        -0.93762014       0.50428844       0.74996633         0.00000000       0.00000000       0.00000000        95.95000000         42
Mo         6.30121783       9.41837804       3.11813357         0.20705054       0.79261804      -0.02534990         0.00000000       0.00000000       0.00000000        95.95000000         42
Mo         6.30711471       9.39681287       6.21192364         0.11150735       0.71406623       1.31961668         0.00000000       0.00000000       0.00000000        95.95000000         42
Mo         6.30839047       3.11977790       9.40910747         0.07192328      -0.10517358       0.97188138         0.00000000       0.00000000       0.00000000        95.95000000         42
Mo         6.36099930       3.19152321       3.17865215        -0.40696092      -0.85757770      -0.62627661         0.00000000       0.00000000       0.00000000        95.95000000         42
Mo         6.30201164       3.13884824       6.24139857         0.36943097      -0.32858382       1.08054678         0.00000000       0.00000000       0.00000000        95.95000000         42
Mo         6.30170924       6.22029645       9.38057756         0.18576459       1.11313443       0.96591926         0.00000000       0.00000000       0.00000000        95.95000000         42
Mo         6.28590864       6.25167085       3.11716966         0.64608141       0.90761217      -0.08532465         0.00000000       0.00000000       0.00000000        95.95000000         42
Mo         6.25522409       6.21957824       6.20123555         0.86101759       1.22991213       1.50232096         0.00000000       0.00000000       0.00000000        95.95000000         42
Mo         1.45472328       1.55356209       1.57097866         1.14698432       0.00454751      -0.27124508         0.00000000       0.00000000       0.00000000        95.95000000         42
Mo         1.51139565       1.56892799       4.73140153         1.32548012       0.18988829      -0.07500610         0.00000000       0.00000000       0.00000000        95.95000000         42
Mo         1.58542790       1.65924280       7.97091246        -0.28542336      -1.37476261      -1.37811859         0.00000000       0.00000000       0.00000000        95.95000000         42
Mo         1.50942058       4.71355970       1.58879214         1.34533972       0.24222978      -0.13087127         0.00000000       0.00000000       0.00000000        95.95000000         42
Mo         1.52403991       4.75300451       4.76656543         1.14287181      -0.17458115      -0.48071526         0.00000000       0.00000000       0.00000000        95.95000000         42
Mo         1.59944243       4.71033721       7.96879563        -0.21062918       0.34397738      -1.45575570         0.00000000       0.00000000       0.00000000        95.95000000         42
Mo         1.57251903       7.97251898       1.66977968        -0.09810647      -1.36288822      -1.47565269         0.00000000       0.00000000       0.00000000        95.95000000         42
Mo         1.58441674       7.96180254       4.73233709        -0.01958908      -1.39915964      -0.03570012         0.00000000       0.00000000       0.00000000        95.95000000         42
Mo         1.58851809       7.88264833       7.90092486        -0.89612203      -0.12039575      -0.38277621         0.00000000       0.00000000       0.00000000        95.95000000         42
Mo         4.62876377       1.56023388       1.57678104         1.30236729       0.44481927       0.21626594         0.00000000       0.00000000       0.00000000        95.95000000         42
Mo         4.71651759       1.58957650       4.78240383         0.42760120      -0.12120110      -0.73227811         0.00000000       0.00000000       0.00000000        95.95000000         42
Mo         4.62180848       1.63205480       7.97147947         1.44429192      -0.79009682      -1.46047688         0.00000000       0.00000000       0.00000000        95.95000000         42
Mo         4.72063784       4.75892028       1.60990371         0.34530636      -0.44463948      -0.41370090         0.00000000       0.00000000       0.00000000        95.95000000         42
Mo         4.69533987       4.72858540       4.74759904         0.47712946      -0.20740856      -0.53535005         0.00000000       0.00000000       0.00000000        95.95000000         42
Mo         4.73136373       4.75651050       7.93339548         0.22573858      -0.33282816      -1.04621127         0.00000000       0.00000000       0.00000000        95.95000000         42
Mo         4.61680936       7.96354137       1.63720511         1.55520018      -1.34501471      -0.87985019         0.00000000       0.00000000       0.00000000        95.95000000         42
Mo         4.72570311       7.91599781       4.77114874         0.31222994      -0.80989927      -0.58610843         0.00000000       0.00000000       0.00000000        95.95000000         42
Mo         4.61342622       7.91534575       7.94434817         1.61343543      -0.64367810      -1.09395315         0.00000000       0.00000000       0.00000000        95.95000000         42
Mo         7.93132590       1.62173526       1.64300749        -1.16811024      -0.58415606      -0.83784998         0.00000000       0.00000000       0.00000000        95.95000000         42
Mo         7.95757834       1.61060302       4.71748150        -1.27090500      -0.37065368       0.20013638         0.00000000       0.00000000       0.00000000        95.95000000         42