107
pbc=[T, T, T] energy=-604.94465532 Lattice="10.52410900 0.00000000 0.00000000 0.00000000 10.52410900 0.00000000 0.00000000 0.00000000 10.52410900" Properties=species:S:1:pos:R:3:force:R:3:momenta:R:3:masses:R:1:Z:I:1
Ni         0.16932239      10.46885743       3.55614905        -0.95956134       0.79060230      -1.16373212         0.00000000       0.00000000       0.00000000        58.69340000         28
Ni         0.01567040       0.08083568       7.09976389         0.04713247      -1.37754099      -0.61469376         0.00000000       0.00000000       0.00000000        58.69340000         28
Ni        10.41080644       3.58202784      10.46113273         0.48534143       0.03541539       0.80870965         0.00000000       0.00000000       0.00000000        58.69340000         28
Ni        10.52090967       3.51073752       3.58802658        -0.14267929      -0.35014378      -0.42460017         0.00000000       0.00000000       0.00000000        58.69340000         28
Ni         0.13411925       3.57766033       7.29653316        -1.74626990      -0.81522377      -3.08731357         0.00000000       0.00000000       0.00000000        58.69340000         28
Ni         0.14911610       7.02962070       0.02123765        -0.94008570      -0.55517253      -0.29076987         0.00000000       0.00000000       0.00000000        58.69340000         28
Ni         0.25209451       7.09844838       3.50977983        -0.91774268      -0.82600534      -0.81802645         0.00000000       0.00000000       0.00000000        58.69340000         28
Ni        10.47522451       6.88686116       7.01988590        -0.02659719       0.68001285      -0.04271678         0.00000000       0.00000000       0.00000000        58.69340000         28
Ni         3.31914612      10.40764921      10.49989303         2.70545968       1.96375243      -0.57052380         0.00000000       0.00000000       0.00000000        58.69340000         28
Ni         3.53417471      10.37560330       3.33351153        -0.05928584       2.13107748       0.61721889         0.00000000       0.00000000       0.00000000        58.69340000         28
Ni         3.52488192       0.01468113       7.18236762        -0.99264222       0.21180135      -2.43789358         0.00000000       0.00000000       0.00000000        58.69340000         28
Ni         3.53316440       3.47150364      10.40208196        -1.02090394       0.43861550       0.65068835         0.00000000       0.00000000       0.00000000        58.69340000         28
Ni         3.61064289       3.48221719       3.57981777        -0.08039329       0.65716837      -0.99339411         0.00000000       0.00000000       0.00000000        58.69340000         28
Ni         3.53461672       3.40900096       6.98863982        -0.75381194       0.63539706       0.29927343         0.00000000       0.00000000       0.00000000        58.69340000         28
Ni         3.48125949       7.16955978       0.05027367         0.66809129      -2.28024403      -1.30302689         0.00000000       0.00000000       0.00000000        58.69340000         28
Ni         3.43061748       7.12814741       3.59902427        -0.59275241      -0.61928291      -0.11450031         0.00000000       0.00000000       0.00000000        58.69340000         28
Ni         3.37064058       7.21593953       6.86758100         1.71782306      -2.02512938       1.05691179         0.00000000       0.00000000       0.00000000        58.69340000         28
Ni         7.03696653      10.51871013      10.44095801        -0.58533491      -0.48207647       0.69890892         0.00000000       0.00000000       0.00000000        58.69340000         28
Ni         6.86290829       0.16945920       3.60324444         1.16340932      -1.22814465      -0.21706617         0.00000000       0.00000000       0.00000000        58.69340000         28
Ni         6.95573093       0.07384767       6.82174850         0.89753794      -1.11949000       1.19108222         0.00000000       0.00000000       0.00000000        58.69340000         28
Ni         6.97936808       3.52973354       0.10242063         0.80699642       0.14915765      -1.73671521         0.00000000       0.00000000       0.00000000        58.69340000         28
Ni         6.95681492       3.55290763       3.61106385         0.44248867      -0.54484951      -0.63594194         0.00000000       0.00000000       0.00000000        58.69340000         28
Ni         6.98396712       3.40684352       7.06574997         0.59226478       0.06694587       0.53552153         0.00000000       0.00000000       0.00000000        58.69340000         28
Ni         6.92569513       7.06900192       0.23016226         0.51433108      -0.23494853      -0.85554889         0.00000000       0.00000000       0.00000000        58.69340000         28
Ni         7.03674552       6.74801659       3.42908096        -1.12361287       2.23206256       0.93513359         0.00000000       0.00000000       0.00000000        58.69340000         28
Ni         7.02733697       7.05457337       7.08371462        -0.32337078      -0.74784953      -0.44994195         0.00000000       0.00000000       0.00000000        58.69340000         28
Ni         0.00726164       1.65094855       1.70977832        -0.47753605       0.68252957       0.20150910         0.00000000       0.00000000       0.00000000        58.69340000         28
Ni         0.15425187       1.66038868       5.23062951        -0.17112687       1.38097769      -0.06295887         0.00000000       0.00000000       0.00000000        58.69340000         28
Ni        10.51352175       1.78446792       8.90297525        -0.60390950      -0.72295049      -0.38865765         0.00000000       0.00000000       0.00000000        58.69340000         28
Ni        10.37226716       5.26535907       1.96206226         1.11892954       0.42117082      -1.54093217         0.00000000       0.00000000       0.00000000        58.69340000         28
Ni         0.15217862       5.23010331       5.30219345        -1.35505720      -0.00087499      -0.04974094         0.00000000       0.00000000       0.00000000        58.69340000         28
Ni         0.14593782       5.35965509       8.74749206        -0.88610293      -0.19459621       1.25674894         0.00000000       0.00000000       0.00000000        58.69340000         28
Ni         0.08004637       8.84368242       1.52436457        -0.33824063       0.32243472       0.80640800         0.00000000       0.00000000       0.00000000        58.69340000         28
Ni        10.45850170       8.53414733       5.23851207         0.34557174       1.92675327       0.37183132         0.00000000       0.00000000       0.00000000        58.69340000         28
Ni         0.09306470       8.77216057       8.76812984        -0.47684834      -0.16632109      -0.21589073         0.00000000       0.00000000       0.00000000        58.69340000         28
Ni         3.49020498       1.89305568       1.69363434         0.37328924      -0.81742784       0.08409053         0.00000000       0.00000000       0.00000000        58.69340000         28
Ni         3.37648146       1.78954054       5.12723014         1.24674108      -0.68177497       1.08603149         0.00000000       0.00000000       0.00000000        58.69340000         28
Ni         3.47256658       1.63449937       8.83255844         0.16298062       0.71078147      -0.09013500         0.00000000       0.00000000       0.00000000        58.69340000         28
Ni         3.42003023       5.22103152       1.86996578         0.73900569      -0.14084293       0.01082966         0.00000000       0.00000000       0.00000000        58.69340000         28
Ni         3.45889576       5.31695878       5.22131567         0.86501200       0.01679289       0.83618155         0.00000000       0.00000000       0.00000000        58.69340000         28
Ni         3.56672578       5.43114536       8.71935060        -0.46093712      -1.08990100       0.18195740         0.00000000       0.00000000       0.00000000        58.69340000         28
Ni         3.66403169       8.80942644       1.65441098        -1.62756154       0.19906102       1.59985893         0.00000000       0.00000000       0.00000000        58.69340000         28
Ni         3.49929781       8.89099881       5.26139148        -0.93761458      -0.55920078      -0.27224805         0.00000000       0.00000000       0.00000000        58.69340000         28
Ni         3.45846427       8.81485688       8.61219412         0.33671347      -0.81958563       1.18388189         0.00000000       0.00000000       0.00000000        58.69340000         28
Ni         6.93872397       1.84815983       1.71245144         0.02508282      -0.88943313       1.00527382         0.00000000       0.00000000       0.00000000        58.69340000         28
Ni         7.10908825       1.77985836       5.37317857        -0.16704500       0.13019943      -0.93190424         0.00000000       0.00000000       0.00000000        58.69340000         28
Ni         6.96350825       1.74447631       8.74385072         0.15445603      -0.41793686      -0.13025394         0.00000000       0.00000000       0.00000000        58.69340000         28
Ni         6.93692435       5.13192389       1.77604863         0.82061147       1.30370766      -0.29219888         0.00000000       0.00000000       0.00000000        58.69340000         28
Ni         7.00975119       5.10385609       5.30773966         0.32008993       1.26078271       0.53940045         0.00000000       0.00000000       0.00000000        58.69340000         28
Ni         6.97242217       5.27015806       8.73482104         0.01106742      -0.08897119       0.28158966         0.00000000       0.00000000       0.00000000        58.69340000         28
Ni         7.01249798       8.85116506       1.86935539        -0.01279683      -0.61536782      -0.12136476         0.00000000       0.00000000       0.00000000        58.69340000         28
Ni         6.88312511       8.72755940       5.32150519         1.28784387       0.20551101      -0.74649583         0.00000000       0.00000000       0.00000000        58.69340000         28
Ni         7.06908611       8.77086611       8.63068498        -0.40593549       0.38098101       0.79097989         0.00000000       0.00000000       0.00000000        58.69340000         28
Ni         1.73187895       0.09448545       1.54709664        -0.24718723      -0.93345439       1.58618278         0.00000000       0.00000000       0.00000000        58.69340000         28
Ni         1.85459006       0.09060205       5.31699035        -0.38587281      -1.01539636      -0.46995120         0.00000000       0.00000000       0.00000000        58.69340000         28
Ni         1.66933417      10.51706837       8.68586288         0.18564815       0.01165654       1.04992011         0.00000000       0.00000000       0.00000000        58.69340000         28
Ni         1.65204306       3.55592805       1.64205568         0.02138025      -0.77441115       0.84949899         0.00000000       0.00000000       0.00000000        58.69340000         28
Ni         1.89335035       3.58017559       5.14496326        -1.25580420      -1.08761519       1.84948857         0.00000000       0.00000000       0.00000000        58.69340000         28
Ni         1.71184105       3.51865165       8.69774460         2.24283694       0.01865313       2.15197414         0.00000000       0.00000000       0.00000000        58.69340000         28
Ni         1.86607186       7.15205819       1.62905840        -0.71450486      -0.43256799       1.65160465         0.00000000       0.00000000       0.00000000        58.69340000         28
Ni         1.70986251       7.09093416       5.39822595         0.19623981      -0.74812644      -1.67337335         0.00000000       0.00000000       0.00000000        58.69340000         28
Ni         1.85978897       7.01603408       8.72515990        -0.73392865       0.23225584       0.18488108         0.00000000       0.00000000       0.00000000        58.69340000         28
Ni         5.35436146      10.47760296       1.75881014        -0.61773402       1.01822724      -0.41368638         0.00000000       0.00000000       0.00000000        58.69340000         28
Ni         5.13799630      10.46461621       5.21804268         0.34403215       0.95474193       0.08552831         0.00000000       0.00000000       0.00000000        58.69340000         28
Ni         5.23438662      10.39112636       8.60798447         1.22122283       0.80106896       1.74218219         0.00000000       0.00000000       0.00000000        58.69340000         28
Ni         5.27986129       3.58077547       1.64681258        -1.32474042      -0.57068681       1.42376170         0.00000000       0.00000000       0.00000000        58.69340000         28
Ni         5.34664729       3.52391371       5.47537819        -1.31088166      -0.11806387      -1.66083521         0.00000000       0.00000000       0.00000000        58.69340000         28
Ni         5.13115563       3.41857790       8.74824980         0.99793819       0.48140782      -0.67576037         0.00000000       0.00000000       0.00000000        58.69340000         28
Ni         5.01639022       6.93761894       1.86240947         1.74934369       0.07883937      -0.40354781         0.00000000       0.00000000       0.00000000        58.69340000         28
Ni         5.30932880       6.91134024       5.29055379        -0.16303371      -0.03605485       0.18362424         0.00000000       0.00000000       0.00000000        58.69340000         28
Ni         5.24713131       7.07901035       8.83795730         0.34522275      -0.01341333      -0.66972644         0.00000000       0.00000000       0.00000000        58.69340000         28
Ni         8.77881181      10.50999617       1.90468482        -0.22120980      -0.18436699      -0.51471511         0.00000000       0.00000000       0.00000000        58.69340000         28
Ni         9.01585684       0.03368767       5.09776263        -1.73480609      -0.75228317       0.82058002         0.00000000       0.00000000       0.00000000        58.69340000         28
Ni         8.72204477       0.04521157       8.82352875         0.65994587       0.16375353      -0.78456189         0.00000000       0.00000000       0.00000000        58.69340000         28
Ni         8.76250997       3.52899685       1.85168541         0.08499556       0.00189221      -0.57882476         0.00000000       0.00000000       0.00000000        58.69340000         28
Ni         8.86583567       3.38581635       5.33961718         0.15471292       0.58679796      -0.55285523         0.00000000       0.00000000       0.00000000        58.69340000         28
Ni         8.71521462       3.43031228       8.79476636        -0.11951749      -0.09655212      -0.16611867         0.00000000       0.00000000       0.00000000        58.69340000         28
Ni         8.74693429       7.11183504       1.94062465         0.69381846      -1.13342982      -2.40732906         0.00000000       0.00000000       0.00000000        58.69340000         28
Ni         8.63424213       6.98888188       5.34201668         0.41789244      -0.53879335      -0.39519542         0.00000000       0.00000000       0.00000000        58.69340000         28
Ni         8.80960535       7.05549949       8.72768569        -0.16740299      -0.48512401       0.09967081         0.00000000       0.00000000       0.00000000        58.69340000         28
Ni         1.65098012       1.67589069      10.46986774         0.43148048       1.06794998      -0.02020052         0.00000000       0.00000000       0.00000000        58.69340000         28
Ni         1.78353128       1.86932381       3.43695299        -0.20410544      -0.86054951      -0.58414036         0.00000000       0.00000000       0.00000000        58.69340000         28
Ni         1.75676847       1.70105383       7.06928607         0.11981132       0.93789099      -0.25800487         0.00000000       0.00000000       0.00000000        58.69340000         28
Ni         1.95352721       5.23511278       0.16411296        -1.53223427       0.75222847      -1.93563974         0.00000000       0.00000000       0.00000000        58.69340000         28
Ni         1.77324922       5.17296792       3.59344649        -0.17378569       1.27080954      -1.47280335         0.00000000       0.00000000       0.00000000        58.69340000         28
Ni         1.80812612       5.30050959       7.04700653         0.54592212      -0.34912712      -0.37798074         0.00000000       0.00000000       0.00000000        58.69340000         28
Ni         1.91552465       8.77099240      10.35918569        -2.47931952      -0.18231621       0.72013580         0.00000000       0.00000000       0.00000000        58.69340000         28
Ni         1.74508671       8.94668187       3.46002184         0.66464488      -1.51308878      -0.13949671         0.00000000       0.00000000       0.00000000        58.69340000         28
Ni         1.71498775       8.81152074       6.92154863        -0.80900332       0.59792004       0.56113003         0.00000000       0.00000000       0.00000000        58.69340000         28
Ni         5.28722817       1.91764000      10.45510242        -0.23832346      -2.24865658       0.61329108         0.00000000       0.00000000       0.00000000        58.69340000         28
Ni         5.29189035       1.87957430       3.69458318        -0.30182632      -0.61856546      -1.05853612         0.00000000       0.00000000       0.00000000        58.69340000         28
Ni         5.16281215       1.64660209       6.85262624         0.33836625       0.47620529       1.06671744         0.00000000       0.00000000       0.00000000        58.69340000         28
Ni         5.20944448       5.22990335      10.47185680         0.01689481       0.68678148       0.22580695         0.00000000       0.00000000       0.00000000        58.69340000         28
Ni         5.23055584       5.27034750       3.53439572        -0.30883792      -0.58675479       0.24240805         0.00000000       0.00000000       0.00000000        58.69340000         28
Ni         5.30147781       5.16647454       7.14173404        -0.51560375       1.18500084      -0.81774855         0.00000000       0.00000000       0.00000000        58.69340000         28
Ni         5.15128825       8.67869596       0.03925493         2.04176664       1.49071500      -0.97293402         0.00000000       0.00000000       0.00000000        58.69340000         28
Ni         5.17853517       8.68404221       3.64679320         1.19464774       0.06730400      -1.21802116         0.00000000       0.00000000       0.00000000        58.69340000         28
Ni         5.13376561       8.71986628       6.93400917         1.31937411       0.03035772       0.31522895         0.00000000       0.00000000       0.00000000        58.69340000         28
Ni         8.68010619       1.72684843       0.14347518         0.62999320       0.07580961      -0.76460461         0.00000000       0.00000000       0.00000000        58.69340000         28
Ni         8.70193320       1.81287249       3.49203618         0.48696740      -0.31450519       0.05504559         0.00000000       0.00000000       0.00000000        58.69340000         28
Ni         9.00641672       1.67233354       6.92161177        -1.59474747       0.84491565       1.02541108         0.00000000       0.00000000       0.00000000        58.69340000         28
Ni         8.64789190       5.27736708      10.29103156         0.96677890       0.41590897       1.81433840         0.00000000       0.00000000       0.00000000        58.69340000         28
Ni         8.73010624       5.29038540       3.59034188         0.89578962      -0.79168692       0.48764780         0.00000000       0.00000000       0.00000000        58.69340000         28
Ni         8.75060720       5.02192590       6.96317148         0.24895658       1.53461043       0.81690597         0.00000000       0.00000000       0.00000000        58.69340000         28
Ni         8.87182389       8.77517047      10.33584321        -0.66636963       0.02196397       1.54789178         0.00000000       0.00000000       0.00000000        58.69340000         28
Ni         8.84285101       8.63166372       3.49442515        -0.36378580       1.41926442       0.98376679         0.00000000       0.00000000       0.00000000        58.69340000         28
Ni         8.88112720       8.76243630       6.95487848        -0.69457221       0.63825373       0.40113400         0.00000000       0.00000000       0.00000000        58.69340000         28
107
pbc=[T, T, T] energy=-605.79146878 Lattice="10.52410900 0.00000000 0.00000000 0.00000000 10.52410900 0.00000000 0.00000000 0.00000000 10.52410900" Properties=species:S:1:pos:R:3:force:R:3:momenta:R:3:masses:R:1:Z:I:1
Ni         0.07433178      10.46032238       3.53342750        -0.60447596      -0.70881854      -0.54167831         0.00000000       0.00000000       0.00000000        58.69340000         28
Ni        10.42592959      10.34475713       7.03210439         0.48984341       1.97995842      -0.14235080         0.00000000       0.00000000       0.00000000        58.69340000         28
Ni         0.13387719       3.59316234      10.37392996        -0.77464482      -1.56515552       1.87234634         0.00000000       0.00000000       0.00000000        58.69340000         28
Ni        10.50526032       3.56091647       3.63094389         0.00935175      -0.48861639      -1.57729487         0.00000000       0.00000000       0.00000000        58.69340000         28
Ni        10.48862170       3.42218767       7.09918506        -0.21928469       0.03007440      -0.12882853         0.00000000       0.00000000       0.00000000        58.69340000         28
Ni         0.09646398       6.90692012      10.35678619         0.06832614       0.94042716       1.46721104         0.00000000       0.00000000       0.00000000        58.69340000         28
Ni         0.08431916       6.97359035       3.54404633        -0.14569582       0.11334870      -0.06273967         0.00000000       0.00000000       0.00000000        58.69340000         28
Ni         0.07794155       6.94964800       7.07942079        -1.64063574      -0.26550356      -0.37549615         0.00000000       0.00000000       0.00000000        58.69340000         28
Ni         3.52938624       0.09853723      10.37442460         1.12096366      -0.35125012       0.19992769         0.00000000       0.00000000       0.00000000        58.69340000         28
Ni         3.60558079       0.09029686       3.42328218        -0.71854614      -0.26912853       0.24174288         0.00000000       0.00000000       0.00000000        58.69340000         28
Ni         3.42152465       0.02598403       6.92396917         0.76525543      -0.63207383       0.99207335         0.00000000       0.00000000       0.00000000        58.69340000         28
Ni         3.55332859       3.71209530      10.46033290        -0.26968574      -1.64403618       0.54287654         0.00000000       0.00000000       0.00000000        58.69340000         28
Ni         3.31531534       3.35232863       3.73444851         0.89389835       1.09020183      -2.09079358         0.00000000       0.00000000       0.00000000        58.69340000         28
Ni         3.47388209       3.51389475       7.10650984         0.58677135      -0.32181508      -1.01406031         0.00000000       0.00000000       0.00000000        58.69340000         28
Ni         3.37626046       7.02139085       0.03315094         1.04293508       0.32216329      -0.26429880         0.00000000       0.00000000       0.00000000        58.69340000         28
Ni         3.52156683       6.93774523       3.49140473        -0.19243074       1.33247604       0.10897182         0.00000000       0.00000000       0.00000000        58.69340000         28
Ni         3.59114171       7.16833898       6.84361760        -0.93154421      -1.14304840       1.90290772         0.00000000       0.00000000       0.00000000        58.69340000         28
Ni         7.13333580      10.46461621       0.11759639        -0.28340442       1.54129733      -0.62622264         0.00000000       0.00000000       0.00000000        58.69340000         28
Ni         7.02421131      10.51180632       3.38153304        -0.45218182       0.47595577       0.58912223         0.00000000       0.00000000       0.00000000        58.69340000         28
Ni         6.99190230      10.47733986       7.07813685        -0.30452885       0.11034452      -1.47383141         0.00000000       0.00000000       0.00000000        58.69340000         28
Ni         7.05314209       3.55618062       0.08178285        -0.02010540      -0.82994777      -0.46280892         0.00000000       0.00000000       0.00000000        58.69340000         28
Ni         7.00655186       3.67278775       3.63415375         0.50799421      -1.18284719      -0.37729820         0.00000000       0.00000000       0.00000000        58.69340000         28
Ni         7.01828624       3.53233299       6.91706536        -0.36898198      -0.45577619       0.94974203         0.00000000       0.00000000       0.00000000        58.69340000         28
Ni         6.95379450       7.05720439       0.04514843         0.54111283      -0.68537101      -0.10355569         0.00000000       0.00000000       0.00000000        58.69340000         28
Ni         7.15778330       7.05644666       3.46306331        -2.37828006      -0.60709396      -0.47218443         0.00000000       0.00000000       0.00000000        58.69340000         28
Ni         6.99059731       7.01274003       6.99129190         0.93928712       0.19619821       0.05207902         0.00000000       0.00000000       0.00000000        58.69340000         28
Ni         0.05884029       1.60047492       1.72783769        -0.87222489       0.41113217      -0.85235430         0.00000000       0.00000000       0.00000000        58.69340000         28
Ni         0.01860662       1.60842063       5.20839207        -0.62866219       0.69702885       1.34805248         0.00000000       0.00000000       0.00000000        58.69340000         28
Ni        10.45797550       1.64621270       8.80444854         0.09796975       0.34753615      -0.04680279         0.00000000       0.00000000       0.00000000        58.69340000         28
Ni        10.48279135       5.23261857       1.71827128         0.66774313      -0.12545801       0.34240738         0.00000000       0.00000000       0.00000000        58.69340000         28
Ni         0.03548730       5.17988226       5.26114943        -0.06256399       1.20717603       0.85433799         0.00000000       0.00000000       0.00000000        58.69340000         28
Ni         0.04387501       5.12443073       8.83679965         0.01755512       1.54498344      -1.74790531         0.00000000       0.00000000       0.00000000        58.69340000         28
Ni         0.11109249       8.74594502       1.76188318         0.09016316       0.17744826      -0.32963482         0.00000000       0.00000000       0.00000000        58.69340000         28
Ni        10.41372162       8.70210158       5.25738180         0.34936207       0.45222601      -0.17854442         0.00000000       0.00000000       0.00000000        58.69340000         28
Ni         0.01811199       8.70075450       8.75847923        -0.20966755       0.46053967       0.31013791         0.00000000       0.00000000       0.00000000        58.69340000         28
Ni         3.65734888       1.91074671       1.81124126        -1.21733422      -0.06684994      -0.60901633         0.00000000       0.00000000       0.00000000        58.69340000         28
Ni         3.39088897       1.76892381       5.26830582         0.78298051      -0.53354855       0.25864877         0.00000000       0.00000000       0.00000000        58.69340000         28
Ni         3.51260029       1.66450360       8.68229521         0.13567375       0.38879788       0.68627541         0.00000000       0.00000000       0.00000000        58.69340000         28
Ni         3.38229077       5.23366045       1.84216109         1.60057569      -0.19957433      -0.63118985         0.00000000       0.00000000       0.00000000        58.69340000         28
Ni         3.58731094       5.36682201       5.11725328        -2.04579386      -1.14554645       1.63241238         0.00000000       0.00000000       0.00000000        58.69340000         28
Ni         3.40983236       5.42063177       8.70185953         1.13450319      -0.42625003       0.35304275         0.00000000       0.00000000       0.00000000        58.69340000         28
Ni         3.72200901       8.68530510       1.85498998        -2.64928791       1.75353245      -0.48523422         0.00000000       0.00000000       0.00000000        58.69340000         28
Ni         3.47092482       8.76409911       5.35698196         0.80879345       0.67699352      -1.36238419         0.00000000       0.00000000       0.00000000        58.69340000         28
Ni         3.69380440       8.73452636       8.70912116        -1.89600290       0.49341008       0.06774155         0.00000000       0.00000000       0.00000000        58.69340000         28
Ni         7.02149609       1.81172536       1.83710952         0.28389860       0.01035816      -0.35229510         0.00000000       0.00000000       0.00000000        58.69340000         28
Ni         6.69565915       1.71803975       5.36170729         2.96900902       0.29011612      -0.52520376         0.00000000       0.00000000       0.00000000        58.69340000         28