106
Lattice="12.445079517199247 0.0 0.0 0.0 8.622199991105981 0.0 0.0 0.0 20.00000193398974" Properties=species:S:1:pos:R:3:forces:R:3:magmoms:R:1 energy=-467630.5221374815 free_energy=-467630.5221374815 pbc="T T T"
Ni       0.00000000       1.43703458       0.00000000      -0.00313752      -0.00470563       0.16497638       0.00000000
Ni       2.48901590       1.43703458       0.00000000       0.00285392      -0.00283927       0.16721761       0.00000000
Ni       4.97803181       1.43703458       0.00000000      -0.00241452      -0.00478302       0.16788507       0.00000000
Ni       7.46704771       1.43703458       0.00000000       0.00046048      -0.00498460       0.16899938       0.00000000
Ni       9.95606361       1.43703458       0.00000000       0.00217618      -0.00238958       0.16648176       0.00000000
Ni       1.24450795       3.59258457       0.00000000       0.00184554      -0.00266803       0.16888831       0.00000000
Ni       3.73352386       3.59258457       0.00000000       0.00099682      -0.00265261       0.16827562       0.00000000
Ni       6.22253976       3.59258457       0.00000000      -0.00026971       0.00149407       0.16484165       0.00000000
Ni       8.71155566       3.59258457       0.00000000      -0.00095799      -0.00071991       0.16637094       0.00000000
Ni      11.20057157       3.59258457       0.00000000      -0.00188179      -0.00410194       0.17056313       0.00000000
Ni       0.00000000       5.74813582       0.00000000       0.00047514      -0.00268886       0.16868545       0.00000000
Ni       2.48901590       5.74813582       0.00000000       0.00046820      -0.00379572       0.16838926       0.00000000
Ni       4.97803181       5.74813582       0.00000000      -0.00052888      -0.00573767       0.16682140       0.00000000
Ni       7.46704771       5.74813582       0.00000000       0.00008819      -0.00501082       0.16644525       0.00000000
Ni       9.95606361       5.74813582       0.00000000      -0.00044557      -0.00482776       0.16831753       0.00000000
Ni       1.24450795       7.90368706       0.00000000      -0.00051962      -0.00336017       0.16223250       0.00000000
Ni       3.73352386       7.90368706       0.00000000       0.00030802      -0.00281896       0.16812958       0.00000000
Ni       6.22253976       7.90368706       0.00000000       0.00000283      -0.00129532       0.16870319       0.00000000
Ni       8.71155566       7.90368706       0.00000000      -0.00072402      -0.00194967       0.16943853       0.00000000
Ni      11.20057157       7.90368706       0.00000000       0.00072017      -0.00240064       0.16537464       0.00000000
Ni       0.00000000       0.00000000       2.03227277       0.00035224       0.00503653      -0.12985794       0.00000000
Ni       2.48901590       0.00000000       2.03227277       0.00000411       0.00568805      -0.13593422       0.00000000
Ni       4.97803181       0.00000000       2.03227277      -0.00077673       0.00851549      -0.14645338       0.00000000
Ni       7.46704771       0.00000000       2.03227277       0.00031110       0.00841291      -0.14951351       0.00000000
Ni       9.95606361       0.00000000       2.03227277       0.00040521       0.00624727      -0.14033030       0.00000000
Ni       1.24450795       2.15555124       2.03227277       0.00003368       0.00881323      -0.13835852       0.00000000
Ni       3.73352386       2.15555124       2.03227277      -0.00213993       0.00601535      -0.14409748       0.00000000
Ni       6.22253976       2.15555124       2.03227277      -0.00041086       0.00426469      -0.13287204       0.00000000
Ni       8.71155566       2.15555124       2.03227277       0.00197589       0.00518386      -0.13893522       0.00000000
Ni      11.20057157       2.15555124       2.03227277       0.00091094       0.00773105      -0.14582449       0.00000000
Ni       0.00000000       4.31110248       2.03227277      -0.00027562       0.00637479      -0.14174029       0.00000000
Ni       2.48901590       4.31110248       2.03227277       0.00047771       0.00597936      -0.13953917       0.00000000
Ni       4.97803181       4.31110248       2.03227277      -0.00119325       0.00503088      -0.13512201       0.00000000
Ni       7.46704771       4.31110248       2.03227277       0.00091557       0.00373118      -0.13440905       0.00000000
Ni       9.95606361       4.31110248       2.03227277       0.00018255       0.00463339      -0.13785407       0.00000000
Ni       1.24450795       6.46665248       2.03227277       0.00070165       0.00569165      -0.13495566       0.00000000
Ni       3.73352386       6.46665248       2.03227277       0.00050265       0.00489949      -0.13803687       0.00000000
Ni       6.22253976       6.46665248       2.03227277       0.00026997       0.00388288      -0.13579693       0.00000000
Ni       8.71155566       6.46665248       2.03227277      -0.00124390       0.00441587      -0.13866705       0.00000000
Ni      11.20057157       6.46665248       2.03227277      -0.00009153       0.00600713      -0.13829141       0.00000000
Ni       1.24450795       0.71851667       4.06454555      -0.00072171      -0.00146707      -0.00220189       0.00000000
Ni       3.73352386       0.71851667       4.06454555       0.00647969       0.00160051       0.01479413       0.00000000
Ni       6.22253976       0.71851667       4.06454555       0.00182857      -0.01209396       0.01378497       0.00000000
Ni       8.71155566       0.71851667       4.06454555      -0.00251788      -0.00386463       0.00974448       0.00000000
Ni      11.20057157       0.71851667       4.06454555      -0.00517974       0.00269272       0.00550550       0.00000000
Ni       0.00000000       2.87406791       4.06454555      -0.00473829       0.00185582       0.00812443       0.00000000
Ni       2.48901590       2.87406791       4.06454555       0.00763669       0.00445495       0.01120795       0.00000000
Ni       4.97803181       2.87406791       4.06454555      -0.00358360       0.00073225      -0.01139384       0.00000000
Ni       7.46704771       2.87406791       4.06454555       0.00012187       0.00370393      -0.00341957       0.00000000
Ni       9.95606361       2.87406791       4.06454555       0.00095465       0.00175375      -0.00197512       0.00000000
Ni       1.24450795       5.02961915       4.06454555       0.00143262       0.00084512       0.00096108       0.00000000
Ni       3.73352386       5.02961915       4.06454555       0.00281921       0.00142491      -0.00182677       0.00000000
Ni       6.22253976       5.02961915       4.06454555      -0.00036407       0.00196201      -0.00252817       0.00000000
Ni       8.71155566       5.02961915       4.06454555      -0.00202860       0.00048311      -0.00143468       0.00000000
Ni      11.20057157       5.02961915       4.06454555      -0.00252919      -0.00050548      -0.00021263       0.00000000
Ni       0.00000000       7.18517039       4.06454555      -0.00044737      -0.00207025      -0.00108166       0.00000000
Ni       2.48901590       7.18517039       4.06454555      -0.00011364      -0.00202809      -0.00292823       0.00000000
Ni       4.97803181       7.18517039       4.06454555       0.00016532       0.00049622      -0.00791848       0.00000000
Ni       7.46704771       7.18517039       4.06454555       0.00123362       0.00187279      -0.00954393       0.00000000
Ni       9.95606361       7.18517039       4.06454555      -0.00080347      -0.00194504      -0.00169744       0.00000000
Ni       0.00000000       1.43703458       6.09681832       0.00328098      -0.00760892       0.13966438       0.00000000
Ni       2.48901590       1.43703458       6.09681832      -0.00832395      -0.01014814       0.12589535       0.00000000
Ni       4.97803181       1.43703458       6.09681832      -0.00006633       0.00813934       0.13984847       0.00000000
Ni       7.46704771       1.43703458       6.09681832       0.00226694       0.00890604       0.13952040       0.00000000
Ni       9.95606361       1.43703458       6.09681832       0.00491723      -0.00387799       0.13234805       0.00000000
Ni       1.24450795       3.59258457       6.09681832      -0.00198026      -0.01045539       0.12861481       0.00000000
Ni       3.73352386       3.59258457       6.09681832       0.01731767      -0.00247083       0.15633361       0.00000000
Ni       6.22253976       3.59258457       6.09681832      -0.00108655       0.00260556       0.13941344       0.00000000
Ni       8.71155566       3.59258457       6.09681832      -0.02178933       0.00607860       0.16965450       0.00000000
Ni      11.20057157       3.59258457       6.09681832       0.00127244      -0.01008464       0.13160654       0.00000000
Ni       0.00000000       5.74813582       6.09681832       0.00058801      -0.00391708       0.13609106       0.00000000
Ni       2.48901590       5.74813582       6.09681832       0.00242532      -0.00623904       0.14115613       0.00000000
Ni       4.97803181       5.74813582       6.09681832       0.00415490      -0.00447012       0.13407506       0.00000000
Ni       7.46704771       5.74813582       6.09681832       0.00136166      -0.01637253       0.14690229       0.00000000
Ni       9.95606361       5.74813582       6.09681832      -0.00373376      -0.00559703       0.14656291       0.00000000
Ni       1.24450795       7.90368706       6.09681832       0.00061064      -0.00668590       0.14143510       0.00000000
Ni       3.73352386       7.90368706       6.09681832      -0.00144290      -0.01033198       0.13634971       0.00000000
Ni       6.22253976       7.90368706       6.09681832      -0.00074125      -0.01733849       0.14356114       0.00000000
Ni       8.71155566       7.90368706       6.09681832      -0.00125033      -0.00673552       0.13700483       0.00000000
Ni      11.20057157       7.90368706       6.09681832       0.00269734      -0.00712093       0.14059512       0.00000000
Ni       0.00000000       0.00000000       8.12909234       0.00084461       0.00313417      -0.16959639       0.00000000
Ni       2.48901590       0.00000000       8.12909234       0.00395641       0.00660439      -0.16408009       0.00000000
Ni       4.97803181       0.00000000       8.12909234      -0.00012547       0.01078218      -0.15726718       0.00000000
Ni       7.46704771       0.00000000       8.12909234      -0.00169693       0.00464187      -0.16248755       0.00000000
Ni       9.95606361       0.00000000       8.12909234      -0.00243303       0.00435391      -0.16749760       0.00000000
Ni       1.24450795       2.15555124       8.12909234       0.00791514       0.00525225      -0.16066515       0.00000000
Ni       3.73352386       2.15555124       8.12909234      -0.01625889      -0.03460936      -0.18860893       0.00000000
Ni       6.22253976       2.15555124       8.12909234      -0.00839748      -0.13678654      -0.26448578       0.00000000
Ni       8.71155566       2.15555124       8.12909234       0.02928435      -0.05520287      -0.21084897       0.00000000
Ni      11.20057157       2.15555124       8.12909234      -0.00532604       0.00492855      -0.16321389       0.00000000
Ni       0.00000000       4.31110248       8.12909234       0.00314472       0.00314112      -0.16582458       0.00000000
Ni       2.48901590       4.31110248       8.12909234      -0.03563523      -0.00057438      -0.17595704       0.00000000
Ni       4.97803181       4.31110248       8.12909234      -0.09805750       0.08142838       0.07645201       0.00000000
Ni       7.46704771       4.31110248       8.12909234      -0.03918644       0.02648082       0.56206886       0.00000000
Ni       9.95606361       4.31110248       8.12909234       0.06331907       0.00539366      -0.20490201       0.00000000
Ni       1.24450795       6.46665248       8.12909234       0.00212425       0.00051242      -0.16387646       0.00000000
Ni       3.73352386       6.46665248       8.12909234      -0.04297059       0.04763868      -0.20139168       0.00000000
Ni       6.22253976       6.46665248       8.12909234      -0.00263538       0.13199709      -0.27983270       0.00000000
Ni       8.71155566       6.46665248       8.12909234       0.04850900       0.05546152      -0.20457754       0.00000000
Ni      11.20057157       6.46665248       8.12909234       0.00021674       0.00170978      -0.16501751       0.00000000
N        6.98230066       4.36485527      10.87031898     -26.89717252       7.25057519     -14.82922803       0.00000000
N        5.34233413       4.37638688      10.86184388       5.13634781      12.07931467       2.01570940       0.00000000
H        7.66000120       4.25469143      11.21715463      23.23297436      -6.09897860      14.84957112       0.00000000
H        6.34004495       5.15244711      11.21407323       4.35838161       2.34776557      -0.30218715       0.00000000
H        4.71461925       4.82327102      11.66231513       2.12784343      -0.26507431      -0.50613657       0.00000000
H        4.88937182       3.68145986      10.80111438      -7.86551545     -15.43038743      -1.88915996       0.00000000
106
Lattice="12.445079517199247 0.0 0.0 0.0 8.622199991105981 0.0 0.0 0.0 20.00000193398974" Properties=species:S:1:pos:R:3:forces:R:3:magmoms:R:1 energy=-467634.22375658754 free_energy=-467634.22375658754 pbc="T T T"
Ni       0.00000000       1.43703398       0.00000000      -0.00247829      -0.00444492       0.15964854       0.00000000
Ni       2.48901587       1.43703398       0.00000000       0.00308712      -0.00233893       0.16228855       0.00000000
Ni       4.97803174       1.43703398       0.00000000      -0.00269863      -0.00484139       0.16230500       0.00000000
Ni       7.46704761       1.43703398       0.00000000      -0.00004371      -0.00571633       0.16395308       0.00000000
Ni       9.95606348       1.43703398       0.00000000       0.00300022      -0.00280482       0.15989485       0.00000000
Ni       1.24450793       3.59258496       0.00000000       0.00166839      -0.00257625       0.16303185       0.00000000
Ni       3.73352380       3.59258496       0.00000000       0.00012753      -0.00245463       0.16197179       0.00000000
Ni       6.22253967       3.59258496       0.00000000       0.00021314       0.00129044       0.15990025       0.00000000
Ni       8.71155554       3.59258496       0.00000000      -0.00147993      -0.00085026       0.16166942       0.00000000
Ni      11.20057141       3.59258496       0.00000000      -0.00198361      -0.00422072       0.16519903       0.00000000
Ni       0.00000000       5.74813593       0.00000000       0.00030699      -0.00264258       0.16347434       0.00000000
Ni       2.48901587       5.74813593       0.00000000       0.00067980      -0.00417804       0.16356021       0.00000000
Ni       4.97803174       5.74813593       0.00000000      -0.00045971      -0.00564229       0.16164988       0.00000000
Ni       7.46704761       5.74813593       0.00000000       0.00034427      -0.00489230       0.16159820       0.00000000
Ni       9.95606348       5.74813593       0.00000000      -0.00045046      -0.00420890       0.16318278       0.00000000
Ni       1.24450793       7.90368690       0.00000000      -0.00100196      -0.00295883       0.15794030       0.00000000
Ni       3.73352380       7.90368690       0.00000000      -0.00007765      -0.00268217       0.16300151       0.00000000
Ni       6.22253967       7.90368690       0.00000000       0.00028873      -0.00141076       0.16327662       0.00000000
Ni       8.71155554       7.90368690       0.00000000      -0.00057284      -0.00176532       0.16381167       0.00000000
Ni      11.20057141       7.90368690       0.00000000       0.00060832      -0.00246723       0.15990128       0.00000000
Ni       0.00000295       0.00004223       2.03118421       0.00003522       0.00516586      -0.11896083       0.00000000
Ni       2.48901590       0.00004769       2.03113326       0.00032447       0.00558444      -0.12544001       0.00000000
Ni       4.97802523       0.00007139       2.03104507      -0.00100813       0.00845713      -0.13411903       0.00000000
Ni       7.46705022       0.00007053       2.03101941       0.00038669       0.00863916      -0.13555730       0.00000000
Ni       9.95606688       0.00005238       2.03109641       0.00063326       0.00641465      -0.12722178       0.00000000
Ni       1.24450822       2.15562486       2.03111294      -0.00018358       0.00849081      -0.12518007       0.00000000
Ni       3.73350586       2.15560141       2.03106482      -0.00107806       0.00577753      -0.13131601       0.00000000
Ni       6.22253623       2.15558673       2.03115894       0.00091917       0.00466630      -0.12220248       0.00000000
Ni       8.71157211       2.15559443       2.03110810       0.00181700       0.00559883      -0.12756323       0.00000000
Ni      11.20057905       2.15561579       2.03105034      -0.00009487       0.00745568      -0.13471064       0.00000000
Ni      12.44507721       4.31115539       2.03108458       0.00037975       0.00619867      -0.13025260       0.00000000
Ni       2.48901987       4.31115208       2.03110304       0.00153109       0.00618865      -0.12876882       0.00000000
Ni       4.97802174       4.31114413       2.03114007      -0.00160668       0.00525328      -0.12418634       0.00000000
Ni       7.46705528       4.31113323       2.03114605       0.00019078       0.00330104      -0.12369192       0.00000000
Ni       9.95606501       4.31114079       2.03111717       0.00060292       0.00467349      -0.12554697       0.00000000
Ni       1.24451382       6.46670064       2.03114147       0.00048105       0.00549265      -0.12420511       0.00000000
Ni       3.73352802       6.46669400       2.03111563       0.00031008       0.00457322      -0.12697393       0.00000000
Ni       6.22254194       6.46668547       2.03113441      -0.00009976       0.00387645      -0.12518161       0.00000000
Ni       8.71154512       6.46668994       2.03111035      -0.00079113       0.00391193      -0.12829471       0.00000000
Ni      11.20057065       6.46670329       2.03111350      -0.00028128       0.00560449      -0.12742593       0.00000000
Ni       1.24450188       0.71850469       4.06452744      -0.00114054      -0.00156195      -0.00297579       0.00000000
Ni       3.73357813       0.71853041       4.06466993       0.00501699       0.00052888       0.01243411       0.00000000
Ni       6.22255501       0.71841560       4.06466147       0.00144959      -0.01093259       0.01261563       0.00000000
Ni       8.71153443       0.71848459       4.06462759      -0.00163702      -0.00239447       0.00736724       0.00000000
Ni      11.20052799       0.71853957       4.06459205      -0.00422175       0.00140639       0.00311541       0.00000000
Ni      12.44503979       2.87408353       4.06461401      -0.00199106       0.00130869       0.00594722       0.00000000
Ni       2.48907990       2.87410532       4.06463986       0.00680571       0.00414770       0.00957762       0.00000000
Ni       4.97800169       2.87407410       4.06445037      -0.00590042      -0.00066566      -0.01259558       0.00000000
Ni       7.46704863       2.87409902       4.06451722      -0.00260761       0.00452257       0.00200520       0.00000000
Ni       9.95607148       2.87408267       4.06452934       0.00238804       0.00086980      -0.00158483       0.00000000
Ni       1.24451995       5.02962602       4.06455395       0.00117037       0.00089937      -0.00041832       0.00000000
Ni       3.73354744       5.02963089       4.06453058       0.00215870       0.00136166      -0.00225023       0.00000000
Ni       6.22253662       5.02963539       4.06452470       0.00133080       0.00203143      -0.00126370       0.00000000
Ni       8.71153854       5.02962299       4.06453387      -0.00240861       0.00070525       0.00017561       0.00000000
Ni      11.20055021       5.02961470       4.06454411      -0.00236387      -0.00104361       0.00057181       0.00000000
Ni      12.44507577       7.18515255       4.06453683      -0.00006119      -0.00179694      -0.00154266       0.00000000
Ni       2.48901492       7.18515291       4.06452135      -0.00014964      -0.00223660      -0.00268500       0.00000000
Ni       4.97803313       7.18517407       4.06447951      -0.00012007      -0.00049957      -0.00806761       0.00000000
Ni       7.46705795       7.18518561       4.06446588       0.00187048       0.00303776      -0.01152754       0.00000000
Ni       9.95605674       7.18515360       4.06453166      -0.00086338      -0.00155706      -0.00271123       0.00000000
Ni       0.00002751       1.43697019       6.09798980       0.00212116      -0.00716104       0.12172965       0.00000000
Ni       2.48894608       1.43694890       6.09787436      -0.00749888      -0.00902483       0.10959019       0.00000000
Ni       4.97803118       1.43710222       6.09799134      -0.00045586       0.00878160       0.11805169       0.00000000
Ni       7.46706662       1.43710865       6.09798859       0.00399344       0.00596316       0.11803755       0.00000000
Ni       9.95610471       1.43700147       6.09792846       0.00640256      -0.00647455       0.11045125       0.00000000
Ni       1.24449133       3.59249730       6.09789716      -0.00290380      -0.01033995       0.11179722       0.00000000
Ni       3.73366900       3.59256424       6.09812956       0.01264083      -0.00743203       0.12797615       0.00000000
Ni       6.22253057       3.59260680       6.09798770      -0.00859597       0.00392993       0.12953758       0.00000000
Ni       8.71137286       3.59263592       6.09824124      -0.03109544       0.01358597       0.17885725       0.00000000
Ni      11.20058208       3.59250040       6.09792224       0.00192987      -0.01005996       0.10980950       0.00000000
Ni       0.00000493       5.74810309       6.09795984       0.00064020      -0.00442538       0.11816302       0.00000000
Ni       2.48903621       5.74808362       6.09800231       0.00222220      -0.00577238       0.12108790       0.00000000
Ni       4.97806657       5.74809845       6.09794294       0.00492700      -0.00399601       0.11733101       0.00000000
Ni       7.46705903       5.74799866       6.09805048       0.00576698      -0.01445577       0.12695362       0.00000000
Ni       9.95603217       5.74808900       6.09804764      -0.00214841      -0.00586289       0.12627073       0.00000000
Ni       1.24451305       7.90363085       6.09800465       0.00099039      -0.00627941       0.12353277       0.00000000
Ni       3.73351171       7.90360028       6.09796201      -0.00199183      -0.00813163       0.11693094       0.00000000
Ni       6.22253346       7.90354154       6.09802247      -0.00053556      -0.01611773       0.12314119       0.00000000
Ni       8.71154506       7.90363043       6.09796750      -0.00099167      -0.00483393       0.11603234       0.00000000
Ni      11.20059403       7.90362720       6.09799760       0.00178357      -0.00624341       0.12270178       0.00000000
Ni       0.00000708       0.00002628       8.12766988       0.00117011       0.00259990      -0.15652902       0.00000000
Ni       2.48904904       0.00005537       8.12771613       0.00136423       0.00634188      -0.15201596       0.00000000
Ni       4.97803069       0.00009040       8.12777325      -0.00058827       0.01091948      -0.14317111       0.00000000
Ni       7.46703338       0.00003892       8.12772948       0.00155937       0.00734101      -0.14870515       0.00000000
Ni       9.95604308       0.00003650       8.12768748      -0.00163599       0.00408291      -0.15378796       0.00000000
Ni       1.24457430       2.15559501       8.12774476       0.00622773       0.00469329      -0.14883988       0.00000000
Ni       3.73338749       2.15526081       8.12751048      -0.00676766      -0.02840992      -0.16160797       0.00000000
Ni       6.22246927       2.15440414       8.12687432      -0.00902431      -0.12935014      -0.24786746       0.00000000
Ni       8.71180107       2.15508815       8.12732401       0.02406321      -0.03924969      -0.18279438       0.00000000
Ni      11.20052676       2.15559230       8.12772339      -0.00610688       0.00573253      -0.14966237       0.00000000
Ni       0.00002637       4.31112828       8.12770150       0.00497946       0.00302259      -0.15244688       0.00000000
Ni       2.48871710       4.31109713       8.12761655      -0.03251520      -0.00020389      -0.17257887       0.00000000
Ni       4.97720962       4.31178465       8.12973277      -0.14273582       0.06457300      -0.02029192       0.00000000
Ni       7.46671907       4.31132396       8.13380422      -0.11279841       0.04859591       0.46670073       0.00000000
Ni       9.95659435       4.31114717       8.12737387       0.04840873       0.00375561      -0.17303190       0.00000000
Ni       1.24452574       6.46665722       8.12771784      -0.00074948       0.00160154      -0.15196017       0.00000000
Ni       3.73316353       6.46705233       8.12740331      -0.03696398       0.04027247      -0.18449825       0.00000000
Ni       6.22251758       6.46775960       8.12674565       0.00728239       0.12787922      -0.26785547       0.00000000
Ni       8.71196225       6.46711792       8.12737659       0.04773767       0.04791945      -0.19223598       0.00000000
Ni      11.20057323       6.46666726       8.12770827      -0.00230217       0.00000129      -0.15080626       0.00000000
N        6.75679257       4.42564412      10.74598992       6.00821712      -1.20889208      -1.51203852       0.00000000
N        5.38539752       4.47766135      10.87874419      -8.73926192      -6.64993413      -0.72716660       0.00000000
H        7.85478889       4.20355660      11.34165501      -3.85596671      -0.84185374      -0.28690966       0.00000000
H        6.37658645       5.17213141      11.21153952       3.77103006       7.41740071       2.30975875       0.00000000
H        4.73245909       4.82104850      11.65807174       1.90832316       0.51384139       0.29059714       0.00000000
H        4.82342693       3.55209069      10.78527582       1.12958332       0.63002055      -0.57888542       0.00000000
106
Lattice="12.445079517199247 0.0 0.0 0.0 8.622199991105981 0.0 0.0 0.0 20.00000193398974" Properties=species:S:1:pos:R:3:forces:R:3:magmoms:R:1 energy=-467635.9569650023 free_energy=-467635.9569650023 pbc="T T T"
Ni       0.00000000       1.43703398       0.00000000      -0.00149844      -0.00517820       0.14650917       0.00000000
Ni       2.48901587       1.43703398       0.00000000       0.00287398      -0.00196741       0.14889747       0.00000000
Ni       4.97803174       1.43703398       0.00000000      -0.00234690      -0.00488124       0.14912990       0.00000000
Ni       7.46704761       1.43703398       0.00000000       0.00043683      -0.00477505       0.15010152       0.00000000
Ni       9.95606348       1.43703398       0.00000000       0.00136500      -0.00304650       0.14574864       0.00000000
Ni       1.24450793       3.59258496       0.00000000       0.00219187      -0.00249834       0.14960786       0.00000000
Ni       3.73352380       3.59258496       0.00000000       0.00016944      -0.00151387       0.14812331       0.00000000
Ni       6.22253967       3.59258496       0.00000000       0.00012264       0.00230319       0.14595818       0.00000000
Ni       8.71155554       3.59258496       0.00000000      -0.00129378      -0.00081015       0.14863959       0.00000000
Ni      11.20057141       3.59258496       0.00000000      -0.00243226      -0.00361189       0.15139324       0.00000000
Ni       0.00000000       5.74813593       0.00000000       0.00067389      -0.00214224       0.15006604       0.00000000
Ni       2.48901587       5.74813593       0.00000000       0.00020157      -0.00434851       0.14950091       0.00000000
Ni       4.97803174       5.74813593       0.00000000      -0.00020157      -0.00607809       0.14777981       0.00000000
Ni       7.46704761       5.74813593       0.00000000       0.00026817      -0.00557184       0.14789114       0.00000000
Ni       9.95606348       5.74813593       0.00000000      -0.00045946      -0.00424232       0.14957238       0.00000000
Ni       1.24450793       7.90368690       0.00000000      -0.00098576      -0.00332212       0.14490815       0.00000000
Ni       3.73352380       7.90368690       0.00000000      -0.00025891      -0.00241118       0.14932016       0.00000000
Ni       6.22253967       7.90368690       0.00000000       0.00022549      -0.00113771       0.14924354       0.00000000
Ni       8.71155554       7.90368690       0.00000000      -0.00013370      -0.00179412       0.14940475       0.00000000
Ni      11.20057141       7.90368690       0.00000000       0.00042320      -0.00221089       0.14562034       0.00000000
Ni       0.00000463       0.00014983       2.02866484       0.00006633       0.00477068      -0.09180381       0.00000000
Ni       2.48902173       0.00016474       2.02847965       0.00012058       0.00602307      -0.09856812       0.00000000
Ni       4.97800484       0.00024836       2.02820453      -0.00034864       0.00763361      -0.10634854       0.00000000
Ni       7.46705807       0.00025046       2.02814396      -0.00010824       0.00725900      -0.10610788       0.00000000
Ni       9.95607943       0.00018598       2.02839774       0.00081041       0.00595390      -0.09888540       0.00000000
Ni       1.24450503       2.15580333       2.02845674      -0.00061115       0.00775162      -0.10061781       0.00000000