106
Lattice="12.445079517199247 0.0 0.0 0.0 8.622199991105981 0.0 0.0 0.0 20.00000193398974" Properties=species:S:1:pos:R:3:forces:R:3:magmoms:R:1 energy=-467639.00842196937 free_energy=-467639.00842196937 pbc="T T T"
Ni       0.00000000       1.43703398       0.00000000       0.00174012       0.02186209       0.04275102       0.00000000
Ni       2.48901587       1.43703398       0.00000000       0.01699525       0.00974808       0.04974442       0.00000000
Ni       4.97803174       1.43703398       0.00000000      -0.00861937      -0.00291049       0.06387803       0.00000000
Ni       7.46704761       1.43703398       0.00000000      -0.01028416      -0.00792080       0.05604362       0.00000000
Ni       9.95606348       1.43703398       0.00000000      -0.02278949       0.01347258       0.02770235       0.00000000
Ni       1.24450793       3.59258496       0.00000000       0.00189336       0.00100427       0.01018902       0.00000000
Ni       3.73352380       3.59258496       0.00000000       0.00259501      -0.00027896       0.05181339       0.00000000
Ni       6.22253967       3.59258496       0.00000000      -0.00747111       0.00950691       0.05779686       0.00000000
Ni       8.71155554       3.59258496       0.00000000      -0.01422309       0.00898215       0.03580287       0.00000000
Ni      11.20057141       3.59258496       0.00000000      -0.00998771      -0.00036613       0.00078393       0.00000000
Ni       0.00000000       5.74813593       0.00000000      -0.00035738      -0.00013575      -0.00013344       0.00000000
Ni       2.48901587       5.74813593       0.00000000       0.00013627      -0.00164859       0.01463241       0.00000000
Ni       4.97803174       5.74813593       0.00000000      -0.00348307      -0.01227727       0.03497806       0.00000000
Ni       7.46704761       5.74813593       0.00000000      -0.01159105      -0.00968663       0.02751312       0.00000000
Ni       9.95606348       5.74813593       0.00000000      -0.01212378      -0.00254976       0.00668255       0.00000000
Ni       1.24450793       7.90368690       0.00000000       0.00178177       0.00684479       0.01877497       0.00000000
Ni       3.73352380       7.90368690       0.00000000      -0.00315320      -0.00226206       0.03653769       0.00000000
Ni       6.22253967       7.90368690       0.00000000      -0.00715744      -0.00259064       0.03908360       0.00000000
Ni       8.71155554       7.90368690       0.00000000      -0.01482267       0.00620124       0.02163558       0.00000000
Ni      11.20057141       7.90368690       0.00000000       0.00282333       0.01363379       0.02634687       0.00000000
Ni      12.44270200       0.00569439       2.00703951      -0.00591817      -0.00439916      -0.01615553       0.00000000
Ni       2.48833505       0.00675183       2.00732285      -0.00088112      -0.00520083      -0.01067265       0.00000000
Ni       4.97390086       0.00623934       2.00829927      -0.00138402      -0.01326946      -0.00950305       0.00000000
Ni       7.45964141       0.00650239       2.00669957      -0.00186893      -0.00639485      -0.01702636       0.00000000
Ni       9.94989468       0.00541000       2.00434970       0.01092513      -0.00436290      -0.01534383       0.00000000
Ni       1.24388561       2.16161706       2.00603495       0.00118399       0.00322468      -0.00201112       0.00000000
Ni       3.73431995       2.16312593       2.01500551       0.00008408       0.00095774      -0.00919247       0.00000000
Ni       6.21649681       2.16421332       2.01433768       0.00053068      -0.00072505      -0.01606014       0.00000000
Ni       8.70188818       2.16301540       2.00977684       0.00059675       0.00493240      -0.01159130       0.00000000
Ni      11.19434418       2.16156232       2.00274814       0.00208465       0.00163342       0.00060755       0.00000000
Ni      12.44052805       4.31520799       2.00009957       0.00133774       0.00171081       0.00009539       0.00000000
Ni       2.48831653       4.31464689       2.00672036       0.00186585       0.00261893      -0.00218878       0.00000000
Ni       4.97545619       4.31338626       2.01508380      -0.00127012       0.00075436      -0.00721683       0.00000000
Ni       7.45937691       4.31535192       2.01328468       0.00211448       0.00559035      -0.01185099       0.00000000
Ni       9.94874727       4.31642108       2.00428483      -0.00084049       0.00190005       0.00000386       0.00000000
Ni       1.24143556       6.47089623       2.00155328       0.00088266       0.00018718      -0.00245335       0.00000000
Ni       3.73032205       6.46764802       2.00584540      -0.00110300      -0.00103950      -0.00973934       0.00000000
Ni       6.21747078       6.46652571       2.00738271      -0.00080450       0.00111097      -0.01167512       0.00000000
Ni       8.70558796       6.46884999       2.00286808       0.00155886      -0.00243998      -0.00509310       0.00000000
Ni      11.19604192       6.47137662       2.00177142       0.00241992       0.00121587      -0.00017226       0.00000000
Ni       1.23987632       0.72511968       4.03543709      -0.03196267      -0.02027572      -0.03776822       0.00000000
Ni       3.72943802       0.72549957       4.04710043      -0.02737402      -0.03073394      -0.05553171       0.00000000
Ni       6.21119114       0.72471864       4.04210210       0.02043847      -0.02603088      -0.04741089       0.00000000
Ni       8.70319748       0.72249301       4.03141391       0.03988424      -0.02240794      -0.05208772       0.00000000
Ni      11.19184686       0.72443448       4.03401440       0.00796656       0.00030468      -0.00097419       0.00000000
Ni      12.43770660       2.87892175       4.03442518       0.00023474       0.00490669       0.00357255       0.00000000
Ni       2.48595292       2.87821649       4.04524203      -0.01851400      -0.00054816      -0.02787410       0.00000000
Ni       4.97059423       2.88207596       4.06672304      -0.00272537       0.01108943      -0.06340443       0.00000000
Ni       7.45643745       2.88363970       4.05340484       0.01955093      -0.00339334      -0.03918464       0.00000000
Ni       9.94431643       2.88008643       4.03610840       0.00601278       0.00109709       0.00047540       0.00000000
Ni       1.23788127       5.03148728       4.02889768      -0.00116342       0.00136526       0.00678591       0.00000000
Ni       3.72792230       5.02694038       4.04905924      -0.00426957       0.02166283      -0.01640570       0.00000000
Ni       6.21331341       5.02984819       4.05678261       0.00039801       0.03017087      -0.03109441       0.00000000
Ni       8.70064028       5.02970931       4.04338078       0.00674246       0.00449943       0.00293851       0.00000000
Ni      11.19152167       5.03141078       4.02966700       0.00308224       0.00814140      -0.00458325       0.00000000
Ni      12.43912873       7.18872285       4.03078836      -0.00087597      -0.00218210      -0.00074151       0.00000000
Ni       2.48253635       7.18754397       4.03117103      -0.00343602      -0.00445624       0.00810386       0.00000000
Ni       4.96906969       7.18413188       4.03313331       0.00087777       0.00028411       0.00253691       0.00000000
Ni       7.45782768       7.18577627       4.02972332       0.00152184       0.00772616      -0.00142928       0.00000000
Ni       9.94719899       7.18729290       4.02970656       0.00969409      -0.00645681      -0.00449840       0.00000000
Ni      12.43943146       1.44266082       6.06304945      -0.01260586      -0.00878572      -0.01680627       0.00000000
Ni       2.48474306       1.44399741       6.06801238      -0.04029819      -0.01400763      -0.05031212       0.00000000
Ni       4.96541122       1.44267485       6.07158328       0.04131197      -0.00098422      -0.09509662       0.00000000
Ni       7.47217443       1.43440291       6.03970311      -0.05044864       0.04383294       0.10903766       0.00000000
Ni       9.94285826       1.44646020       6.05845048       0.03842925      -0.01285500      -0.01454036       0.00000000
Ni       1.24073550       3.59329802       6.06161220      -0.00350621      -0.00101584       0.01126735       0.00000000
Ni       3.74234189       3.60478628       6.11978222       0.00072428       0.00388159      -0.04370155       0.00000000
Ni       6.21367709       3.61241748       6.12177870       0.01023145      -0.04343467      -0.03704754       0.00000000
Ni       8.67621103       3.60750136       6.11108148      -0.00850572      -0.00344374       0.02097377       0.00000000
Ni      11.18380691       3.59496337       6.05878065       0.00907934       0.00577444      -0.00330824       0.00000000
Ni      12.43487719       5.74891514       6.05659399      -0.00151824      -0.00389599      -0.00278193       0.00000000
Ni       2.47800994       5.74618851       6.05990681      -0.00838282       0.01044356       0.00903409       0.00000000
Ni       4.96340026       5.72896504       6.08763119      -0.00097496      -0.00104850       0.02585064       0.00000000
Ni       7.45601330       5.73700630       6.08309513       0.01030910       0.00545177       0.01270099       0.00000000
Ni       9.94420273       5.75001581       6.05821647       0.01650134      -0.01137173      -0.00690958       0.00000000
Ni       1.23819128       7.90914960       6.05950801      -0.01558397      -0.02038576      -0.00940252       0.00000000
Ni       3.72578298       7.89997221       6.05960295      -0.00527050       0.00078521       0.02433421       0.00000000
Ni       6.21012757       7.90430682       6.05053153       0.01311340       0.00214199       0.03153818       0.00000000
Ni       8.69918854       7.90331814       6.05173287       0.03514132      -0.01939692      -0.01510909       0.00000000
Ni      11.19087233       7.90709251       6.05759708       0.01416575      -0.00718058      -0.00733279       0.00000000
Ni      12.43450871       0.00867572       8.05867083      -0.00815348      -0.00862631       0.01376749       0.00000000
Ni       2.46987925       8.62216450       8.06695150      -0.02855056      -0.00506430      -0.02812787       0.00000000
Ni       4.95805263       8.60997519       8.07287512       0.02898945       0.01646277      -0.03465153       0.00000000
Ni       7.47716468       8.59933908       8.06115522      -0.02683229       0.11522836      -0.04986372       0.00000000
Ni       9.95106040       0.00901378       8.05842172       0.04204962      -0.01543973       0.00804087       0.00000000
Ni       1.23401349       2.16242441       8.06765299      -0.00194170      -0.01164813      -0.03337395       0.00000000
Ni       3.70811939       2.13465307       8.08734522      -0.07473888      -0.01332320      -0.07986823       0.00000000
Ni       6.25416147       2.09304114       8.03693247      -0.16076748       0.03665082       0.17596733       0.00000000
Ni       8.72303101       2.14729853       8.06575239      -0.08971762      -0.00393739      -0.05089447       0.00000000
Ni      11.19334304       2.16071524       8.06016765       0.02057397       0.00027871       0.01408193       0.00000000
Ni      12.42968527       4.31750473       8.06066526      -0.00475731       0.00870061       0.01133471       0.00000000
Ni       2.44045888       4.32758043       8.07416471       0.03766923      -0.01481058      -0.02568146       0.00000000
Ni       4.94970332       4.33016703       8.28962131      -0.09402447       0.00324139      -0.08793996       0.00000000
Ni       7.47683875       4.34091216       8.25087815       0.00054790      -0.01316765       0.02979934       0.00000000
Ni       9.96404489       4.32058577       8.06548405      -0.01041785       0.00747188       0.00495040       0.00000000
Ni       1.22425084       6.47894745       8.06063648      -0.01465580      -0.00455420       0.01516102       0.00000000
Ni       3.69971208       6.48000834       8.06312455       0.03062518      -0.05137990       0.01855077       0.00000000
Ni       6.19792110       6.50907680       8.02684612      -0.02729843      -0.03148856       0.01718911       0.00000000
Ni       8.72150593       6.49147813       8.05217513       0.02845286      -0.04382625       0.00746725       0.00000000
Ni      11.19305558       6.47662544       8.06013667       0.01282980       0.00443978       0.00352910       0.00000000
N        6.86887308       4.55467735      10.16990308       0.28905190       0.00135420      -0.09647679       0.00000000
N        5.46118274       4.30473958      10.08800221       0.13593705       0.07983584       0.22857107       0.00000000
H        7.34526319       3.89023968      10.80113670      -0.07706059      -0.13157980      -0.05560499       0.00000000
H        7.10849693       5.51254419      10.47908024      -0.02687060       0.04218255       0.04667324       0.00000000
H        4.96064666       4.80575352      10.83461049      -0.03222492       0.26133155      -0.08226399       0.00000000
H        4.96603864       2.42494726       9.00714908       0.06987436      -0.16423333      -0.01946736       0.00000000
106
Lattice="12.445079517199247 0.0 0.0 0.0 8.622199991105981 0.0 0.0 0.0 20.00000193398974" Properties=species:S:1:pos:R:3:forces:R:3:magmoms:R:1 energy=-467639.05135078466 free_energy=-467639.05135078466 pbc="T T T"
Ni       0.00000000       1.43703398       0.00000000       0.00315654       0.02392951       0.04288163       0.00000000
Ni       2.48901587       1.43703398       0.00000000       0.01781389       0.01057829       0.05137475       0.00000000
Ni       4.97803174       1.43703398       0.00000000      -0.00981621      -0.00535715       0.06999160       0.00000000
Ni       7.46704761       1.43703398       0.00000000      -0.01057135      -0.00832935       0.05444054       0.00000000
Ni       9.95606348       1.43703398       0.00000000      -0.02072618       0.01383459       0.02365441       0.00000000
Ni       1.24450793       3.59258496       0.00000000       0.00402660      -0.00022651       0.01141184       0.00000000
Ni       3.73352380       3.59258496       0.00000000       0.00289223      -0.00195918       0.05712066       0.00000000
Ni       6.22253967       3.59258496       0.00000000      -0.00957839       0.00856306       0.05922948       0.00000000
Ni       8.71155554       3.59258496       0.00000000      -0.01327563       0.00833397       0.03419310       0.00000000
Ni      11.20057141       3.59258496       0.00000000      -0.01014892      -0.00109992       0.00114311       0.00000000
Ni       0.00000000       5.74813593       0.00000000       0.00168664       0.00028128       0.00088960       0.00000000
Ni       2.48901587       5.74813593       0.00000000       0.00022497      -0.00257882       0.01467791       0.00000000
Ni       4.97803174       5.74813593       0.00000000      -0.00393533      -0.01414852       0.03316646       0.00000000
Ni       7.46704761       5.74813593       0.00000000      -0.01160493      -0.00821236       0.02346620       0.00000000
Ni       9.95606348       5.74813593       0.00000000      -0.01184636      -0.00301642       0.00670801       0.00000000
Ni       1.24450793       7.90368690       0.00000000       0.00245463       0.00465935       0.01531452       0.00000000
Ni       3.73352380       7.90368690       0.00000000      -0.00313957      -0.00134829       0.03487059       0.00000000
Ni       6.22253967       7.90368690       0.00000000      -0.00835968       0.00018486       0.03466773       0.00000000
Ni       8.71155554       7.90368690       0.00000000      -0.01317022       0.00441227       0.01615321       0.00000000
Ni      11.20057141       7.90368690       0.00000000       0.00189567       0.01317279       0.01808848       0.00000000
Ni      12.44255318       0.00568413       2.00591489      -0.01044768      -0.01107863      -0.02968493       0.00000000
Ni       2.48898009       0.00641272       2.00721300      -0.01280281      -0.01468614      -0.02956897       0.00000000
Ni       4.97365492       0.00401335       2.00971605      -0.00045817      -0.01234952      -0.03825339       0.00000000
Ni       7.45961728       0.00544178       2.00603692       0.00562635      -0.00883277      -0.03720592       0.00000000
Ni       9.95098927       0.00521271       2.00311415       0.01679727      -0.00972545      -0.02701715       0.00000000
Ni       1.24498416       2.16183373       2.00680506      -0.01031527       0.00310795      -0.01864153       0.00000000
Ni       3.73493953       2.16274511       2.01657000      -0.00755493      -0.00108783      -0.03929803       0.00000000
Ni       6.21623179       2.16366479       2.01420780       0.00699906      -0.00288786      -0.03619265       0.00000000
Ni       8.70202295       2.16282974       2.00921704       0.00754799       0.00832832      -0.02378553       0.00000000
Ni      11.19484080       2.16180042       2.00282515       0.00156580       0.00339051       0.00123696       0.00000000
Ni      12.44090202       4.31542737       1.99981476       0.00227054       0.00266161       0.00422329       0.00000000
Ni       2.48920850       4.31424930       2.00724485      -0.00569319       0.00962184      -0.01022862       0.00000000
Ni       4.97550134       4.31231359       2.01641349      -0.00209931       0.01622546      -0.03242444       0.00000000
Ni       7.45921087       4.31563937       2.01261044       0.00765495       0.00936807      -0.01926142       0.00000000
Ni       9.94856609       4.31652823       2.00413601       0.00253974       0.00305730       0.00271534       0.00000000
Ni       1.24230193       6.47111245       2.00158702      -0.00307581      -0.00356046      -0.00217772       0.00000000
Ni       3.73069455       6.46723720       2.00534233      -0.00470692       0.00234536      -0.01111514       0.00000000
Ni       6.21710153       6.46666715       2.00617194       0.00146887       0.00163908      -0.01200654       0.00000000
Ni       8.70532046       6.46851456       2.00255041       0.00593719      -0.00088523      -0.00364248       0.00000000
Ni      11.19637197       6.47234094       2.00166470       0.00499617      -0.00901172      -0.00422715       0.00000000
Ni       1.23530424       0.72171148       4.02869029      -0.02525183      -0.01564799      -0.02978314       0.00000000
Ni       3.72666703       0.72027088       4.04036532      -0.02391589      -0.01677208      -0.04946083       0.00000000
Ni       6.21265449       0.71913623       4.03391373       0.04905845      -0.00244923      -0.01500239       0.00000000
Ni       8.70926715       0.71881047       4.02246135       0.00646967       0.00154780       0.01492243       0.00000000
Ni      11.19299946       0.72476847       4.03425618       0.01025742      -0.00855817      -0.02426016       0.00000000
Ni      12.43840657       2.87932193       4.03505833      -0.00256596       0.00702785      -0.00226848       0.00000000
Ni       2.48451987       2.87885503       4.04294883      -0.01891921      -0.00710473      -0.03702954       0.00000000
Ni       4.97081199       2.88358378       4.06163659      -0.00488895       0.00434774      -0.09743298       0.00000000
Ni       7.45883809       2.88525996       4.04697908       0.02055211      -0.03384137      -0.00530341       0.00000000
Ni       9.94497279       2.88050886       4.03628147       0.00713173      -0.00105415       0.00121716       0.00000000
Ni       1.23824409       5.03148971       4.02979852      -0.00066360       0.00076773       0.00572945       0.00000000
Ni       3.72759982       5.02997516       4.04742465      -0.00336635       0.01532095      -0.01545490       0.00000000
Ni       6.21350162       5.03426799       4.05243367       0.00460279       0.01460412      -0.00962287       0.00000000
Ni       8.70172971       5.03038063       4.04419279       0.00138968      -0.00062529       0.00225691       0.00000000
Ni      11.19227466       5.03220996       4.02863966       0.00455445       0.00351393      -0.00751019       0.00000000
Ni      12.44053450       7.18887085       4.03098201      -0.01227959      -0.01384770      -0.01538008       0.00000000
Ni       2.48331772       7.18638794       4.03289443      -0.00981724      -0.00405746       0.00123773       0.00000000
Ni       4.96922854       7.18081241       4.03560450       0.00169307       0.02590978       0.00642981       0.00000000
Ni       7.45719103       7.18538791       4.02985091       0.01349109       0.01556752       0.00171930       0.00000000
Ni       9.94796038       7.18703493       4.02893799       0.02154713      -0.01688392      -0.01496922       0.00000000
Ni      12.43759386       1.44194912       6.06205274      -0.01165558      -0.01589585      -0.02785276       0.00000000
Ni       2.46746430       1.43546371       6.04833907       0.04782072       0.01064205      -0.01151520       0.00000000
Ni       4.96866155       1.43478204       6.03898039       0.02923370       0.04994574       0.06468278       0.00000000
Ni       7.48262761       1.43004982       6.03424145      -0.13685134       0.09034317       0.15203859       0.00000000
Ni       9.95335111       1.44422958       6.05663376      -0.03169373      -0.00646761      -0.01070607       0.00000000
Ni       1.23951673       3.59322362       6.06569692       0.00470666      -0.00192833      -0.01735546       0.00000000
Ni       3.73865030       3.61120692       6.10386850       0.03096431      -0.04558026      -0.00005682       0.00000000
Ni       6.21717309       3.61572296       6.09919042      -0.00888933      -0.08654976       0.11153857       0.00000000
Ni       8.67824430       3.60664857       6.11463942      -0.01939769       0.00464290      -0.00712890       0.00000000
Ni      11.18581150       3.59695964       6.05786181      -0.00181751      -0.00992909       0.00653369       0.00000000
Ni      12.43453597       5.74896191       6.05593244       0.00550447      -0.01366670      -0.00004345       0.00000000
Ni       2.47626548       5.74712133       6.06295795      -0.00004705       0.01200345      -0.00252045       0.00000000
Ni       4.96258809       5.73120426       6.09284912       0.01516180      -0.02901001      -0.00856152       0.00000000
Ni       7.45837586       5.74062444       6.08341365      -0.00421661      -0.02213514       0.02336027       0.00000000
Ni       9.94744282       5.74884638       6.05726058       0.01210758      -0.02109359      -0.00958173       0.00000000
Ni       1.23588749       7.90508848       6.05998510      -0.01588350      -0.01363302      -0.02588664       0.00000000
Ni       3.72534092       7.89820697       6.06534880      -0.00416107       0.01934858       0.00251505       0.00000000
Ni       6.21194500       7.90345058       6.05828247       0.02738919      -0.00725154      -0.01610128       0.00000000
Ni       8.70772914       7.89714830       6.04958481      -0.00040829       0.02841635      -0.00467144       0.00000000
Ni      11.19394859       7.90629968       6.05656428       0.00858671      -0.01538780      -0.00873249       0.00000000
Ni      12.43390176       0.00835401       8.06076947      -0.00448837      -0.01416935       0.00969152       0.00000000
Ni       2.46082944       8.61584366       8.06425642       0.01699036       0.01282029      -0.03815003       0.00000000
Ni       4.96429872       8.61594150       8.07176658      -0.01858985      -0.01968102      -0.05934672       0.00000000
Ni       7.48608108       8.60131522       8.05355757      -0.08337908       0.12060531      -0.01872740       0.00000000
Ni       9.95949886       0.00695706       8.06004526      -0.00000874      -0.00529339      -0.00441407       0.00000000
Ni       1.22518691       2.15983661       8.06465675       0.04040463      -0.00716721      -0.04181334       0.00000000
Ni       3.69130834       2.12362338       8.03317852      -0.07607483       0.03340557       0.08111959       0.00000000
Ni       6.22182595       2.10753344       8.03548874       0.09987450      -0.05879162       0.01786840       0.00000000
Ni       8.72861957       2.14395831       8.05869593      -0.16848362       0.01808848      -0.02225007       0.00000000
Ni      11.19853058       2.16143069       8.06206875      -0.02527652       0.00454751       0.00652315       0.00000000
Ni      12.42826618       4.31962873       8.06198138       0.00898986      -0.00268963       0.01456941       0.00000000
Ni       2.44076085       4.32896582       8.07345887       0.04152512      -0.04584560      -0.03822279       0.00000000
Ni       4.94740018       4.31377603       8.29598931      -0.04551341       0.07805458       0.03000246       0.00000000
Ni       7.47364874       4.34443328       8.25917338       0.03937207      -0.03630038      -0.10429551       0.00000000
Ni       9.96724927       4.32255603       8.06690985      -0.03152378      -0.01745111       0.00172752       0.00000000
Ni       1.22019481       6.47828052       8.06291218       0.01534280      -0.01685230       0.01583003       0.00000000
Ni       3.70286921       6.47370321       8.06718132       0.00284364      -0.01341370       0.01564773       0.00000000
Ni       6.19321446       6.50136749       8.03361916       0.00554793       0.01700245      -0.00009822       0.00000000
Ni       8.72924839       6.48439906       8.05287026      -0.01286349       0.01308049      -0.00079010       0.00000000
Ni      11.19540438       6.47826952       8.05994479       0.00953905      -0.00645141       0.01042557       0.00000000
N        6.89316471       4.56830893      10.15948897      -0.03431908      -0.08853877       0.15437675       0.00000000
N        5.47437005       4.33305408      10.10680870      -0.00012727      -0.01060966      -0.08627337       0.00000000
H        7.33984688       3.87564863      10.77989633       0.06477226      -0.12295761      -0.05380830       0.00000000
H        7.13185489       5.50827297      10.51331108       0.07327515       0.10220084       0.01541556       0.00000000
H        4.98224002       4.89253494      10.81887086       0.08021970       0.27128969      -0.12349754       0.00000000
H        4.92197308       2.36137087       8.99377249       0.10219004      -0.12677441       0.06161186       0.00000000
106
Lattice="12.445079517199247 0.0 0.0 0.0 8.622199991105981 0.0 0.0 0.0 20.00000193398974" Properties=species:S:1:pos:R:3:forces:R:3:magmoms:R:1 energy=-467640.10715628817 free_energy=-467640.10715628817 pbc="T T T"
Ni       0.00000000       1.43703398       0.00000000       0.00929505       0.01804940       0.00131049       0.00000000
Ni       2.48901587       1.43703398       0.00000000       0.01338028       0.00301873      -0.00387311       0.00000000
Ni       4.97803174       1.43703398       0.00000000      -0.00290586      -0.00633031       0.01104983       0.00000000
Ni       7.46704761       1.43703398       0.00000000      -0.00870036      -0.01683738       0.01767248       0.00000000
Ni       9.95606348       1.43703398       0.00000000      -0.02020296       0.00409114      -0.01363893       0.00000000
Ni       1.24450793       3.59258496       0.00000000       0.02169240       0.00958816      -0.01685924       0.00000000
Ni       3.73352380       3.59258496       0.00000000      -0.00185736       0.00277396       0.01942366       0.00000000
Ni       6.22253967       3.59258496       0.00000000      -0.00799253      -0.01194226       0.02933886       0.00000000
Ni       8.71155554       3.59258496       0.00000000      -0.00792903       0.00693658       0.00603849       0.00000000
Ni      11.20057141       3.59258496       0.00000000      -0.02378862       0.00625009      -0.01878577       0.00000000
Ni       0.00000000       5.74813593       0.00000000       0.01205899       0.00118168      -0.02582210       0.00000000
Ni       2.48901587       5.74813593       0.00000000      -0.00048414      -0.00221346      -0.00406697       0.00000000
Ni       4.97803174       5.74813593       0.00000000       0.00300356       0.00129738       0.01970005       0.00000000
Ni       7.46704761       5.74813593       0.00000000      -0.01098530       0.00073739       0.01330212       0.00000000
Ni       9.95606348       5.74813593       0.00000000      -0.02118718       0.00213556      -0.00694943       0.00000000
Ni       1.24450793       7.90368690       0.00000000       0.00828152      -0.00400346      -0.01845384       0.00000000
Ni       3.73352380       7.90368690       0.00000000       0.00259167      -0.00865793       0.00412611       0.00000000
Ni       6.22253967       7.90368690       0.00000000      -0.00432974      -0.01396392       0.02829653       0.00000000
Ni       8.71155554       7.90368690       0.00000000      -0.01070402      -0.00389111      -0.00611305       0.00000000
Ni      11.20057141       7.90368690       0.00000000      -0.00940175       0.00530521      -0.01961495       0.00000000
Ni      12.44284737       0.00192817       2.00000557       0.00427009      -0.00354247       0.00045997       0.00000000
Ni       2.48979950       0.00302696       2.00009407      -0.00384611       0.00138968       0.00319254       0.00000000
Ni       4.97578241       8.62170454       2.00550486       0.00275468      -0.00060807       0.00685405       0.00000000
Ni       7.46186495       8.62214398       2.00509636       0.00011853       0.00139611       0.00566954       0.00000000
Ni       9.95210159       0.00205243       1.99732614      -0.00348744       0.00080296       0.00964267       0.00000000
Ni       1.24468758       2.15876666       1.99834111       0.00079756      -0.00133235      -0.00415002       0.00000000