107
pbc=[T, T, T] energy=-426.34693886 Lattice="10.86378800 0.00000000 0.00000000 0.00000000 10.86378800 0.00000000 0.00000000 0.00000000 10.86378800" Properties=species:S:1:pos:R:3:force:R:3:momenta:R:3:masses:R:1:Z:I:1
Cu         0.13768765      10.82465664       3.59160090        -0.45379089       1.30609493      -0.42509356         0.00000000       0.00000000       0.00000000        63.54600000         29
Cu         0.04027206      10.58792383       7.46343322        -0.67302079       1.21909874      -0.73855034         0.00000000       0.00000000       0.00000000        63.54600000         29
Cu        10.82756813       3.71600214      10.78637265         0.65046281      -0.45216021      -0.33946528         0.00000000       0.00000000       0.00000000        63.54600000         29
Cu        10.70269975       3.82085942       3.61720685         0.48643370      -0.74898869      -0.33152218         0.00000000       0.00000000       0.00000000        63.54600000         29
Cu        10.77321660       3.65129742       7.03800728         0.36684528      -0.24682374       1.31092123         0.00000000       0.00000000       0.00000000        63.54600000         29
Cu         0.01386219       7.24134480       0.08639971        -0.32990769      -0.50722516      -0.45393895         0.00000000       0.00000000       0.00000000        63.54600000         29
Cu        10.78011510       7.21197998       3.60713612         0.12939687      -0.13659194       0.33706829         0.00000000       0.00000000       0.00000000        63.54600000         29
Cu         0.26028550       7.14806832       7.32006381        -2.09602038      -0.17110336      -0.11588383         0.00000000       0.00000000       0.00000000        63.54600000         29
Cu         3.43679193       0.06672539      10.65147699         1.00031369      -0.71561328       1.09984992         0.00000000       0.00000000       0.00000000        63.54600000         29
Cu         3.35523747       0.12573748       3.53520698         0.77674152      -0.43522601       0.22850617         0.00000000       0.00000000       0.00000000        63.54600000         29
Cu         3.39610704      10.61106370       7.42546428         0.67998200       1.46809787      -0.07031184         0.00000000       0.00000000       0.00000000        63.54600000         29
Cu         3.68586599       3.69890254       0.20180573         0.13397358      -0.43600911      -0.29177019         0.00000000       0.00000000       0.00000000        63.54600000         29
Cu         3.73476390       3.80529161       3.77350417        -0.03485977      -1.31728224      -0.54369876         0.00000000       0.00000000       0.00000000        63.54600000         29
Cu         3.56099761       3.65307908       7.09121812         0.47088832      -0.72177069       0.22814364         0.00000000       0.00000000       0.00000000        63.54600000         29
Cu         3.73887041       7.33434969      10.68540460         0.19745013      -0.66244477       1.46013267         0.00000000       0.00000000       0.00000000        63.54600000         29
Cu         3.46090953       7.26964497       3.60792918        -0.23541604       0.13335989       0.44788685         0.00000000       0.00000000       0.00000000        63.54600000         29
Cu         3.57346924       7.44010867       7.31182906         0.88037730      -1.29469868      -0.10400834         0.00000000       0.00000000       0.00000000        63.54600000         29
Cu         7.43621943      10.70029885       0.13624277        -0.71917679       0.43944122      -0.09330140         0.00000000       0.00000000       0.00000000        63.54600000         29
Cu         7.39037425       0.16169662       3.64452928        -0.68006446      -0.65477946      -0.37304846         0.00000000       0.00000000       0.00000000        63.54600000         29
Cu         7.25106789       0.00410651       7.34078105         0.62548024      -0.20308077      -0.13613685         0.00000000       0.00000000       0.00000000        63.54600000         29
Cu         7.42449740       3.69717520      10.68162400        -0.94094264       0.56748111       0.19428406         0.00000000       0.00000000       0.00000000        63.54600000         29
Cu         7.37049351       3.39611790       3.69462221         0.05195774       0.48065230      -1.13338368         0.00000000       0.00000000       0.00000000        63.54600000         29
Cu         7.03564984       3.56056306       7.24860181         0.70339000      -0.90617039      -0.45355530         0.00000000       0.00000000       0.00000000        63.54600000         29
Cu         7.27068789       7.09549845      10.82551487        -0.36579088       0.39760444       0.13611815         0.00000000       0.00000000       0.00000000        63.54600000         29
Cu         7.10364629       7.47900103       3.72295496         0.31555713      -1.00840252       1.18552261         0.00000000       0.00000000       0.00000000        63.54600000         29
Cu         7.15918197       7.21180616       7.07025100        -0.29654561       0.68154695       0.50038210         0.00000000       0.00000000       0.00000000        63.54600000         29
Cu         0.17498303       1.93179878       1.61077385        -1.11779012      -0.16664543       1.77142721         0.00000000       0.00000000       0.00000000        63.54600000         29
Cu         0.06394426       1.94166310       5.37501121        -0.30563965      -0.99999265      -0.23195568         0.00000000       0.00000000       0.00000000        63.54600000         29
Cu         0.04706193       1.96145692       8.79116193        -0.21041822      -0.33907450       0.94206076         0.00000000       0.00000000       0.00000000        63.54600000         29
Cu        10.77309710       5.29422808       1.71761920         0.30422222       1.55979645       0.40011627         0.00000000       0.00000000       0.00000000        63.54600000         29
Cu        10.72149410       5.37494602       5.54901650         0.36686043       1.52201381      -1.17360010         0.00000000       0.00000000       0.00000000        63.54600000         29
Cu         0.02367219       5.26970851       9.00673208         0.10026185       0.70824767      -0.45894752         0.00000000       0.00000000       0.00000000        63.54600000         29
Cu         0.14216353       8.82465499       1.85588263        -0.34259900       0.57129027      -0.38213475         0.00000000       0.00000000       0.00000000        63.54600000         29
Cu        10.85447773       9.15038395       5.48678872        -0.33408731      -1.02857409       0.15163423         0.00000000       0.00000000       0.00000000        63.54600000         29
Cu        10.69910384       8.85141250       9.09058966         0.33550721       0.08556331       0.49391496         0.00000000       0.00000000       0.00000000        63.54600000         29
Cu         3.57032961       1.72158448       1.60258255         0.63283571       0.24431821       0.84878577         0.00000000       0.00000000       0.00000000        63.54600000         29
Cu         3.58864595       1.78975475       5.34196356         0.18624016      -0.03005190       0.63486388         0.00000000       0.00000000       0.00000000        63.54600000         29
Cu         3.68783234       1.81968449       9.19524053         0.22195032       0.45736327      -0.44270320         0.00000000       0.00000000       0.00000000        63.54600000         29
Cu         3.78557384       5.37735778       2.02065370        -0.14427636      -0.02713695      -0.67283539         0.00000000       0.00000000       0.00000000        63.54600000         29
Cu         3.49416359       5.51621872       5.32494001         1.03951187      -0.01022872       0.64988676         0.00000000       0.00000000       0.00000000        63.54600000         29
Cu         3.67338350       5.46548483       9.16824402        -0.52482208       0.13672450      -1.00549889         0.00000000       0.00000000       0.00000000        63.54600000         29
Cu         3.51782492       8.94406975       1.86185772        -0.24730009       0.67224156      -0.66756542         0.00000000       0.00000000       0.00000000        63.54600000         29
Cu         3.48602661       9.18837461       5.52553985         0.07436835      -0.39658232      -0.51555794         0.00000000       0.00000000       0.00000000        63.54600000         29
Cu         3.69159121       9.06414720       9.12460418         0.45146487       0.05039860       0.02756618         0.00000000       0.00000000       0.00000000        63.54600000         29
Cu         7.55739412       1.76909183       1.55285899        -0.79426482       0.02783532       1.17973015         0.00000000       0.00000000       0.00000000        63.54600000         29
Cu         7.28482168       1.74584332       5.48870075        -0.16538079      -0.17591529       0.23183247         0.00000000       0.00000000       0.00000000        63.54600000         29
Cu         7.38828840       1.91274370       9.03196866        -0.68123574      -1.13667136      -0.13430493         0.00000000       0.00000000       0.00000000        63.54600000         29
Cu         7.12392898       5.56481245       1.80143333         0.54483207      -0.65002448      -0.31116909         0.00000000       0.00000000       0.00000000        63.54600000         29
Cu         7.19553221       5.41314310       5.60626866         0.69870015      -0.00536388      -1.22695620         0.00000000       0.00000000       0.00000000        63.54600000         29
Cu         7.10526499       5.29108844       8.77091183         0.99617763       0.76489864       1.05834696         0.00000000       0.00000000       0.00000000        63.54600000         29
Cu         6.90537129       8.99477105       2.08609716         1.38847920       1.22024481      -1.36367930         0.00000000       0.00000000       0.00000000        63.54600000         29
Cu         7.16752536       9.22687588       5.45336085         0.27957914      -0.30761871      -0.29499135         0.00000000       0.00000000       0.00000000        63.54600000         29
Cu         7.25804244       8.98587361       9.04554839        -0.18599446      -0.10679428      -0.28648291         0.00000000       0.00000000       0.00000000        63.54600000         29
Cu         1.78404040      10.65387789       1.66794996        -0.43489699       0.89933695      -0.06208456         0.00000000       0.00000000       0.00000000        63.54600000         29
Cu         1.63743358       0.06364007       5.54856022         0.69668491       0.31894017       0.09788024         0.00000000       0.00000000       0.00000000        63.54600000         29
Cu         1.49883338       0.07270047       9.24720203         0.41296008      -0.53792761       0.38331146         0.00000000       0.00000000       0.00000000        63.54600000         29
Cu         1.78763632       3.82951786       2.06218597         0.53954757      -0.21954206      -1.31998745         0.00000000       0.00000000       0.00000000        63.54600000         29
Cu         1.70750502       3.64600675       5.48450733         0.77719487      -0.00342306      -0.56090650         0.00000000       0.00000000       0.00000000        63.54600000         29
Cu         2.01323374       3.65214479       8.99645494        -0.57676343      -0.19076151      -0.00415408         0.00000000       0.00000000       0.00000000        63.54600000         29
Cu         1.95865407       6.96419871       1.61846541        -0.47359026       0.50731381       0.53266868         0.00000000       0.00000000       0.00000000        63.54600000         29
Cu         1.80475765       7.30598434       5.49022168        -0.29625357       0.28516883      -0.63323706         0.00000000       0.00000000       0.00000000        63.54600000         29
Cu         1.86953841       7.20407115       9.18237780        -0.50753178      -0.79636360      -0.20843998         0.00000000       0.00000000       0.00000000        63.54600000         29
Cu         5.53102607       0.06931097       1.75401289        -0.67527240       0.51091011       0.26530350         0.00000000       0.00000000       0.00000000        63.54600000         29
Cu         5.36955758      10.74902294       5.71559096        -0.45182734       0.63175710      -1.34668458         0.00000000       0.00000000       0.00000000        63.54600000         29
Cu         5.71391794      10.81666089       9.20408365        -1.13419466       0.23389647       0.11742486         0.00000000       0.00000000       0.00000000        63.54600000         29
Cu         5.67564481       3.49574970       1.85296027        -0.44135626       0.05419653       0.00506164         0.00000000       0.00000000       0.00000000        63.54600000         29
Cu         5.60855006       3.64368190       5.30639552        -1.01588555      -0.67960334       0.30691131         0.00000000       0.00000000       0.00000000        63.54600000         29
Cu         5.31725931       3.79760005       9.15181797         0.10652064      -1.46980521      -0.23226340         0.00000000       0.00000000       0.00000000        63.54600000         29
Cu         5.29080599       7.25828145       2.03309274         0.18929282      -0.22031175      -1.23012617         0.00000000       0.00000000       0.00000000        63.54600000         29
Cu         5.23600904       7.22350646       5.36404964         0.34662741       0.53623431       0.50129891         0.00000000       0.00000000       0.00000000        63.54600000         29
Cu         5.59023371       7.10675333       9.07472853        -0.57751048       0.80708422      -0.73260670         0.00000000       0.00000000       0.00000000        63.54600000         29
Cu         9.41438486       0.04258605       1.56663428         0.16649246      -0.58557679      -0.51927017         0.00000000       0.00000000       0.00000000        63.54600000         29
Cu         9.19195966       0.02362874       5.48933085        -0.24229629      -0.08731857      -0.40601287         0.00000000       0.00000000       0.00000000        63.54600000         29
Cu         9.09926983      10.82644916       9.27262329         0.46262102       0.36255578      -0.66326205         0.00000000       0.00000000       0.00000000        63.54600000         29
Cu         8.99033862       3.74483463       1.60985042        -0.07711926      -0.25679815       1.39094631         0.00000000       0.00000000       0.00000000        63.54600000         29
Cu         9.08104039       3.58081316       5.27731316        -0.78612476      -0.05127282       0.93298999         0.00000000       0.00000000       0.00000000        63.54600000         29
Cu         9.06615700       3.45566232       8.75985250         0.17765893       1.75070843       0.49405216         0.00000000       0.00000000       0.00000000        63.54600000         29
Cu         8.77426874       7.40143358       2.00923586         1.07417665      -0.04709075      -1.06916771         0.00000000       0.00000000       0.00000000        63.54600000         29
Cu         8.95691075       7.45203711       5.37695582         0.47393975      -0.70452815      -0.40437826         0.00000000       0.00000000       0.00000000        63.54600000         29
Cu         8.87924553       7.12495018       8.89812679         0.58365685       0.25922063       0.62205471         0.00000000       0.00000000       0.00000000        63.54600000         29
Cu         1.74665811       1.89088576       0.09124496         0.76974448       0.32377940      -1.60407908         0.00000000       0.00000000       0.00000000        63.54600000         29
Cu         1.90548669       2.06587965       3.53764047        -0.61644785      -0.86148573       0.35448703         0.00000000       0.00000000       0.00000000        63.54600000         29
Cu         1.94012044       1.71696737       7.41451358        -0.02192839       0.32039045      -0.90886902         0.00000000       0.00000000       0.00000000        63.54600000         29
Cu         1.83466565       5.24146266      10.82334212        -0.02992899       0.62290603       0.13850843         0.00000000       0.00000000       0.00000000        63.54600000         29
Cu         1.74939578       5.50681068       3.73585028        -0.58476990       0.09482827      -0.27534210         0.00000000       0.00000000       0.00000000        63.54600000         29
Cu         1.93916443       5.52130298       7.09110948        -0.20791073      -0.69636246       1.22715507         0.00000000       0.00000000       0.00000000        63.54600000         29
Cu         1.94916998       8.92918636      10.79793172        -1.05769107       0.45457811       0.37706961         0.00000000       0.00000000       0.00000000        63.54600000         29
Cu         1.63810714       9.17736960       3.81280936         1.49869740      -1.42034295      -0.85189803         0.00000000       0.00000000       0.00000000        63.54600000         29
Cu         1.76423572       8.87483483       7.45930498        -0.22730798       1.33805923      -0.25556782         0.00000000       0.00000000       0.00000000        63.54600000         29
Cu         5.77463565       1.86612718      10.79864873        -1.30679198      -0.18207752       0.17974626         0.00000000       0.00000000       0.00000000        63.54600000         29
Cu         5.58077135       1.65636916       3.75668703        -1.19478851       0.26726456      -0.60092275         0.00000000       0.00000000       0.00000000        63.54600000         29
Cu         5.36717841       1.57634650       7.34970022        -0.32909421       1.11678294       0.10406132         0.00000000       0.00000000       0.00000000        63.54600000         29
Cu         5.37821602       5.55099371       0.02695306         0.43082737      -0.72161663       0.74300528         0.00000000       0.00000000       0.00000000        63.54600000         29
Cu         5.68576986       5.49040636       3.64395350        -0.66004124      -0.68945899       0.49765685         0.00000000       0.00000000       0.00000000        63.54600000         29
Cu         5.29981207       5.25471648       7.12663406        -0.41816162       1.33346689       0.10711673         0.00000000       0.00000000       0.00000000        63.54600000         29
Cu         5.47789128       9.08094262       0.14141393        -0.21620593      -0.26973534      -0.52860575         0.00000000       0.00000000       0.00000000        63.54600000         29
Cu         5.10067883       9.10309388       3.59788017         0.44967650       0.92020976       1.22601869         0.00000000       0.00000000       0.00000000        63.54600000         29
Cu         5.46207360       9.02100710       7.34308418        -0.12486499      -0.12423271       0.00821463         0.00000000       0.00000000       0.00000000        63.54600000         29
Cu         9.22606110       2.03227796      10.78627487         0.09104758      -1.36881985      -0.64738809         0.00000000       0.00000000       0.00000000        63.54600000         29
Cu         9.23247073       1.61073039       3.36688345         0.25285038       1.12926690       0.76296076         0.00000000       0.00000000       0.00000000        63.54600000         29
Cu         9.02362527       1.70615791       7.12994752         0.58949856       0.20111298       0.41203360         0.00000000       0.00000000       0.00000000        63.54600000         29
Cu         9.09880268       5.48090055      10.77761643        -0.27685241       0.34346846      -0.27309005         0.00000000       0.00000000       0.00000000        63.54600000         29
Cu         8.89936526       5.53656660       3.49982362        -0.10133953      -0.36013682       0.85793532         0.00000000       0.00000000       0.00000000        63.54600000         29
Cu         9.01699836       5.54734348       7.21874812         0.26060347      -0.76338500      -0.34791427         0.00000000       0.00000000       0.00000000        63.54600000         29
Cu         8.85785473       8.87870234      10.73596467         1.34762482      -0.38082866       1.26068311         0.00000000       0.00000000       0.00000000        63.54600000         29
Cu         9.05820471       9.36683406       3.45243578         0.23207191      -0.93875792       0.52737624         0.00000000       0.00000000       0.00000000        63.54600000         29
Cu         9.02306035       8.98693826       7.19562998        -0.07616498       0.28885831       0.50539614         0.00000000       0.00000000       0.00000000        63.54600000         29
107
pbc=[T, T, T] energy=-426.45385646 Lattice="10.86378800 0.00000000 0.00000000 0.00000000 10.86378800 0.00000000 0.00000000 0.00000000 10.86378800" Properties=species:S:1:pos:R:3:force:R:3:momenta:R:3:masses:R:1:Z:I:1
Cu         0.05125535      10.77123939       3.55324087         1.27141435       0.50306004      -0.22223924         0.00000000       0.00000000       0.00000000        63.54600000         29
Cu         0.07351525      10.82156046       7.17522779        -0.66592825       0.32262677       0.29201224         0.00000000       0.00000000       0.00000000        63.54600000         29
Cu        10.81696507       3.73460095       0.02036960        -0.20235731      -0.90236944       0.03656092         0.00000000       0.00000000       0.00000000        63.54600000         29
Cu         0.00159698       3.53327323       3.73218918         0.38773391       0.70799791      -0.55106708         0.00000000       0.00000000       0.00000000        63.54600000         29
Cu         0.00982086       3.48408199       7.21870467        -0.27504988       0.04664602      -0.23754454         0.00000000       0.00000000       0.00000000        63.54600000         29
Cu        10.65022766       7.18085523      10.80682916         0.62649354       0.34463596       0.08436149         0.00000000       0.00000000       0.00000000        63.54600000         29
Cu         0.14794306       7.22349560       3.76398749        -0.61705743      -0.08500917      -0.26952705         0.00000000       0.00000000       0.00000000        63.54600000         29
Cu        10.66515450       7.11167463       7.32710354         0.20357108       0.30798111      -0.32605203         0.00000000       0.00000000       0.00000000        63.54600000         29
Cu         3.23363909       0.28879208      10.83085986         1.55467564      -1.20050389      -0.54140637         0.00000000       0.00000000       0.00000000        63.54600000         29
Cu         3.52170329       0.08832260       3.46784063         0.26334019      -0.45581192       1.00233726         0.00000000       0.00000000       0.00000000        63.54600000         29
Cu         3.58811363       0.11403718       7.21442434         0.87176053      -0.81677230       0.63229315         0.00000000       0.00000000       0.00000000        63.54600000         29
Cu         3.63275293       3.47761804       0.02170585        -0.00173641       0.66201699      -0.01632257         0.00000000       0.00000000       0.00000000        63.54600000         29
Cu         3.56910200       3.75185264       3.33796405         0.35598825       0.47031237       1.14622517         0.00000000       0.00000000       0.00000000        63.54600000         29
Cu         3.84419484       3.65586021       7.04182047        -0.23138148       0.86810987       1.58647546         0.00000000       0.00000000       0.00000000        63.54600000         29
Cu         3.31951733       7.17699859      10.69222706         0.93666601       0.66463113       0.71374333         0.00000000       0.00000000       0.00000000        63.54600000         29
Cu         3.69398124       7.37512149       3.62295380        -0.12964210      -0.61818907       0.11913828         0.00000000       0.00000000       0.00000000        63.54600000         29
Cu         3.80373809       7.19012204       7.48770292        -0.74729060       0.00842037      -0.66358756         0.00000000       0.00000000       0.00000000        63.54600000         29
Cu         7.24265932       0.27888430       0.16521649         0.84318499      -1.22313799      -0.73833035         0.00000000       0.00000000       0.00000000        63.54600000         29
Cu         7.26978620      10.85742182       3.62086795         0.36047984       0.40323867       0.18129612         0.00000000       0.00000000       0.00000000        63.54600000         29
Cu         7.42824541      10.72406882       7.15281579        -1.07168424       0.74179631       0.17984350         0.00000000       0.00000000       0.00000000        63.54600000         29
Cu         7.28261633       3.45342438      10.77335783        -1.38380668       0.83505442       0.05371430         0.00000000       0.00000000       0.00000000        63.54600000         29
Cu         7.30142155       3.60205187       3.59860805        -0.21265635       0.84887160       0.82381890         0.00000000       0.00000000       0.00000000        63.54600000         29
Cu         7.31559879       3.58924346       7.19652081        -0.31546673      -0.16743731      -0.20176862         0.00000000       0.00000000       0.00000000        63.54600000         29
Cu         7.16778609       7.47662186       0.14646559         0.62952056      -1.05433962      -0.05555211         0.00000000       0.00000000       0.00000000        63.54600000         29
Cu         7.31428427       7.42936438       3.40562372        -0.11489185      -1.24966571       1.17661318         0.00000000       0.00000000       0.00000000        63.54600000         29
Cu         7.27480527       7.06791529       7.20880776        -0.00695872       0.63853925       0.66048361         0.00000000       0.00000000       0.00000000        63.54600000         29
Cu         0.07035389       1.90969097       1.95257034        -0.70724379      -0.36536213      -0.46461911         0.00000000       0.00000000       0.00000000        63.54600000         29
Cu         0.20587965       1.71748884       5.31461941        -0.53394398      -0.17277191       0.81191177         0.00000000       0.00000000       0.00000000        63.54600000         29
Cu         0.04409612       1.85639323       9.19911890        -0.94510276      -1.03359722      -0.39466353         0.00000000       0.00000000       0.00000000        63.54600000         29
Cu         0.08495482       5.38778702       1.73049279        -1.53491546       0.95771823       0.83528046         0.00000000       0.00000000       0.00000000        63.54600000         29
Cu         0.15241895       5.30208260       5.52942909        -0.52673964       0.20076965       0.41147503         0.00000000       0.00000000       0.00000000        63.54600000         29
Cu        10.80991448       5.25708479       9.00734045        -0.33260446       0.65974790      -0.61618556         0.00000000       0.00000000       0.00000000        63.54600000         29
Cu         0.29789593       9.10050830       1.83523057        -1.29673212      -0.13397689      -0.02813787         0.00000000       0.00000000       0.00000000        63.54600000         29
Cu        10.85345654       9.05159952       5.45941198         0.58279471      -1.04030628       0.04272656         0.00000000       0.00000000       0.00000000        63.54600000         29
Cu        10.71372650       9.08616810       9.12006312        -0.05520707      -0.26475997      -0.46362381         0.00000000       0.00000000       0.00000000        63.54600000         29
Cu         3.69518712       1.93092968       1.87524190        -0.54883768      -0.68078192      -0.27303810         0.00000000       0.00000000       0.00000000        63.54600000         29
Cu         3.69180848       2.11617899       5.43381689         0.84588273      -2.86024172      -1.16908303         0.00000000       0.00000000       0.00000000        63.54600000         29
Cu         3.67117815       1.88336802       8.88525320         0.40064934      -0.52193659       1.29036269         0.00000000       0.00000000       0.00000000        63.54600000         29
Cu         3.17657161       5.56016274       1.67443564         1.88557207      -1.02776273       0.61884393         0.00000000       0.00000000       0.00000000        63.54600000         29
Cu         3.48021449       5.48380118       5.35615167         1.09726990       0.05894012       0.10273942         0.00000000       0.00000000       0.00000000        63.54600000         29
Cu         3.57789080       5.29846496       9.18075910         0.18341319      -0.05740716      -0.47263907         0.00000000       0.00000000       0.00000000        63.54600000         29
Cu         3.59053625       8.99000185       1.64465800        -0.68260319       0.69647780       0.02074860         0.00000000       0.00000000       0.00000000        63.54600000         29
Cu         3.77792573       8.99888842       5.52033610        -0.34644189       0.28318082       0.23488446         0.00000000       0.00000000       0.00000000        63.54600000         29
Cu         3.55064442       8.99880151       9.15853179         0.05052681       0.91756739      -0.52225263         0.00000000       0.00000000       0.00000000        63.54600000         29
Cu         7.21430483       2.00707397       1.92824632        -0.29537058      -2.40926641      -0.63689787         0.00000000       0.00000000       0.00000000        63.54600000         29
Cu         7.41232996       1.68207289       5.36690682        -0.43662844       0.36656571       0.38206487         0.00000000       0.00000000       0.00000000        63.54600000         29