63
pbc=[T, T, T] energy=-278.40474351 Lattice="11.56165000 0.00000000 0.00000000 0.00000000 11.56165000 0.00000000 0.00000000 0.00000000 11.56165000" Properties=species:S:1:pos:R:3:force:R:3:momenta:R:3:masses:R:1:Z:I:1
Ge         4.35491514       4.30966285       4.25447909         0.49014308       0.06158551       0.55992733         0.00000000       0.00000000       0.00000000        72.63000000         32
Ge         4.26505800       4.55531322      10.30644791        -0.13690767      -0.17523754       0.01155016         0.00000000       0.00000000       0.00000000        72.63000000         32
Ge         4.37821187      10.08912357       4.36157465        -0.59270975      -0.37339228       0.39390383         0.00000000       0.00000000       0.00000000        72.63000000         32
Ge         4.46051925      10.14930196      10.19043831        -0.41762479      -0.12734054      -0.59979108         0.00000000       0.00000000       0.00000000        72.63000000         32
Ge        10.21420906       4.18330557       4.33753798        -0.37893781       0.70215585      -0.93710377         0.00000000       0.00000000       0.00000000        72.63000000         32
Ge        10.09774856       4.37838529      10.30885273        -0.65526470       0.06194626      -0.58061912         0.00000000       0.00000000       0.00000000        72.63000000         32
Ge        10.13282661      10.06565342       4.34122615        -0.05268575       0.54985656       0.78284747         0.00000000       0.00000000       0.00000000        72.63000000         32
Ge        10.17398608      10.15590366      10.10739098        -0.10438057       0.18769047      -0.13311773         0.00000000       0.00000000       0.00000000        72.63000000         32
Ge         2.79854363      11.37422409       0.03759849        -0.42582710       0.75818492       0.14923949         0.00000000       0.00000000       0.00000000        72.63000000         32
Ge         3.03414693       0.17937900       5.85825337        -0.47917216      -1.12719330      -0.24699873         0.00000000       0.00000000       0.00000000        72.63000000         32
Ge         2.87106986       5.67507059       5.72147905         0.00289965      -0.20666054       0.38386107         0.00000000       0.00000000       0.00000000        72.63000000         32
Ge         8.72698778       0.00657858       0.04663970        -0.43156906      -0.00265902      -0.65731778         0.00000000       0.00000000       0.00000000        72.63000000         32
Ge         8.63359277      11.44332807       5.87568834        -0.14836438       0.41490889      -0.77872282         0.00000000       0.00000000       0.00000000        72.63000000         32
Ge         8.55038357       5.88734248       0.07464201         0.09590412      -1.18047916      -0.23538890         0.00000000       0.00000000       0.00000000        72.63000000         32
Ge         8.73871129       5.84731605       5.45071677         0.45908846      -0.53758579       1.39572999         0.00000000       0.00000000       0.00000000        72.63000000         32
Ge         4.25836380       1.43579507       1.41092596         0.27331861      -0.79848483      -0.50119788         0.00000000       0.00000000       0.00000000        72.63000000         32
Ge         4.41000641       1.62549862       7.29826844        -0.21700140      -0.08185107       0.33539177         0.00000000       0.00000000       0.00000000        72.63000000         32
Ge         4.25541558       7.26025373       1.38621871        -0.56301394      -0.18615017      -0.10871054         0.00000000       0.00000000       0.00000000        72.63000000         32
Ge         4.33708708       7.15152798       7.13567696        -0.38739000      -0.42490498       0.35773070         0.00000000       0.00000000       0.00000000        72.63000000         32
Ge        10.15733731       1.38772173       1.46904637        -0.37563121       0.97561655      -0.07850375         0.00000000       0.00000000       0.00000000        72.63000000         32
Ge         9.99431804       1.51695785       7.20805288        -0.11498902      -0.06298777      -0.14805171         0.00000000       0.00000000       0.00000000        72.63000000         32
Ge        10.09536686       7.18185419       1.35803141         0.60744447       0.58347139       0.73901871         0.00000000       0.00000000       0.00000000        72.63000000         32
Ge        10.18585990       7.22025043       7.10597508        -0.70525626      -0.03842160       0.46572130         0.00000000       0.00000000       0.00000000        72.63000000         32
Ge         2.97762203       2.88163721       2.83328639        -1.05928882       0.23897518       0.17171546         0.00000000       0.00000000       0.00000000        72.63000000         32
Ge         2.86457221       2.99064044       8.75981130         0.79203392      -0.43752518       0.86710158         0.00000000       0.00000000       0.00000000        72.63000000         32
Ge         2.69105497       8.59691921       2.95330788         1.47258913       0.22355730       0.02192574         0.00000000       0.00000000       0.00000000        72.63000000         32
Ge         3.03858661       8.63339622       8.63740811        -0.41663562       0.59286990       0.17403853         0.00000000       0.00000000       0.00000000        72.63000000         32
Ge         8.63609008       2.85729993       2.89800850         0.05352420      -0.14585511      -0.09525217         0.00000000       0.00000000       0.00000000        72.63000000         32
Ge         8.63447145       3.02301306       8.69260343         0.38050874      -0.06824724       0.31845887         0.00000000       0.00000000       0.00000000        72.63000000         32
Ge         8.77946611       8.75024982       2.84675571        -0.93459589      -0.70763127      -0.33138978         0.00000000       0.00000000       0.00000000        72.63000000         32
Ge         8.75119787       8.56139026       8.84573748         0.10386881       0.14451976      -0.89523916         0.00000000       0.00000000       0.00000000        72.63000000         32
Ge         1.61904722       4.38066294       1.28612951         0.32096805       0.27485243      -0.02154850         0.00000000       0.00000000       0.00000000        72.63000000         32
Ge         1.46468763       4.20786252       7.26794223        -0.59502746       1.15636489      -0.22910130         0.00000000       0.00000000       0.00000000        72.63000000         32
Ge         1.22828657      10.03924661       1.66409141         0.63959517       0.30021350      -1.08767926         0.00000000       0.00000000       0.00000000        72.63000000         32
Ge         1.40951544      10.12175055       7.20324324         1.13698233       0.49105316       0.13860941         0.00000000       0.00000000       0.00000000        72.63000000         32
Ge         7.14688019       4.38579631       1.47734764         0.70219682      -0.11410079       0.48726373         0.00000000       0.00000000       0.00000000        72.63000000         32
Ge         7.35719817       4.42118652       7.10743184        -0.07286928       0.47940931      -0.02006821         0.00000000       0.00000000       0.00000000        72.63000000         32
Ge         7.20952121      10.09499689       1.38314331         0.54733713       0.22003364       0.47453831         0.00000000       0.00000000       0.00000000        72.63000000         32
Ge         7.26973429      10.05177944       7.40350258        -0.05697603      -0.22371070       0.02002314         0.00000000       0.00000000       0.00000000        72.63000000         32
Ge        11.47970102       0.05462880       2.99243250         0.42650892       0.00257612       0.30023884         0.00000000       0.00000000       0.00000000        72.63000000         32
Ge        11.48038316       0.06442151       8.50088815         0.27175898      -0.25692950       0.86261505         0.00000000       0.00000000       0.00000000        72.63000000         32
Ge         0.06228261       5.71019488       2.77409074        -0.26400914      -0.28598665       0.11193281         0.00000000       0.00000000       0.00000000        72.63000000         32
Ge        11.45776857       5.71909735       8.71970394         0.57706160      -0.05150464      -0.56058691         0.00000000       0.00000000       0.00000000        72.63000000         32
Ge         5.65850274      11.44801054       2.78019529         0.38967945       0.40321743       0.09304633         0.00000000       0.00000000       0.00000000        72.63000000         32
Ge         5.82163762       0.10714181       8.66890205        -0.14690448      -0.34571285       0.28651890         0.00000000       0.00000000       0.00000000        72.63000000         32
Ge         5.70936244       5.86167562       2.82696216         0.01880018       0.17974771       0.42709251         0.00000000       0.00000000       0.00000000        72.63000000         32
Ge         5.79203980       5.77964571       8.60870054        -0.21863087      -0.62826199       0.11458499         0.00000000       0.00000000       0.00000000        72.63000000         32
Ge         1.50634426       1.44204992       4.34866029        -0.01434425       0.20663426      -0.04630197         0.00000000       0.00000000       0.00000000        72.63000000         32
Ge         1.36200862       1.44180712      10.07881058         0.41914285      -0.52658020      -0.02580914         0.00000000       0.00000000       0.00000000        72.63000000         32
Ge         1.41429040       7.10776713       4.35660314        -0.42215740      -0.09825499       0.02395697         0.00000000       0.00000000       0.00000000        72.63000000         32
Ge         1.36618237       7.31548374       9.93013932         0.36140346      -0.18656565       0.27207221         0.00000000       0.00000000       0.00000000        72.63000000         32
Ge         7.14438288       1.30374946       4.25642145         0.20559911       0.13886994       0.61729813         0.00000000       0.00000000       0.00000000        72.63000000         32
Ge         7.23494528       1.52416076      10.12332293         0.26664455      -0.06536825       0.38237303         0.00000000       0.00000000       0.00000000        72.63000000         32
Ge         7.21283941       7.31354138       4.32460050        -0.15394096       0.37653330      -0.86401009         0.00000000       0.00000000       0.00000000        72.63000000         32
Ge         7.17075500       7.14871850      10.11638594        -0.05720036       0.47128889      -0.29691065         0.00000000       0.00000000       0.00000000        72.63000000         32
Ge         0.03804939       2.92380255       0.01218598         0.09489453      -0.42877999       0.45706639         0.00000000       0.00000000       0.00000000        72.63000000         32
Ge         0.01667190       2.84516020       5.80817986         0.28713007      -0.40748065       0.11304257         0.00000000       0.00000000       0.00000000        72.63000000         32
Ge         0.02614089       8.66343339      11.52576264        -0.10226817      -0.11831909       0.17912031         0.00000000       0.00000000       0.00000000        72.63000000         32
Ge         0.08463128       8.69218721       5.75230241        -0.16016427      -0.37417754      -0.18502549         0.00000000       0.00000000       0.00000000        72.63000000         32
Ge         5.79108018       2.91964035       0.10858702        -0.60294049      -0.05984626      -0.93170549         0.00000000       0.00000000       0.00000000        72.63000000         32
Ge         5.85565200       2.93582666       5.83270212         0.08337517      -0.08241076      -1.01110559         0.00000000       0.00000000       0.00000000        72.63000000         32
Ge         5.82906020       8.62406597       0.01393179        -0.31140781      -0.15643092      -0.10427790         0.00000000       0.00000000       0.00000000        72.63000000         32
Ge         5.80343959       8.60659631       5.92250146         0.29568529       0.89689568      -0.77802017         0.00000000       0.00000000       0.00000000        72.63000000         32
63
pbc=[T, T, T] energy=-278.00203539 Lattice="11.56165000 0.00000000 0.00000000 0.00000000 11.56165000 0.00000000 0.00000000 0.00000000 11.56165000" Properties=species:S:1:pos:R:3:force:R:3:momenta:R:3:masses:R:1:Z:I:1
Ge         4.32691283       4.19728361       4.20970082         0.03118755      -0.41924415       0.25398613         0.00000000       0.00000000       0.00000000        72.63000000         32
Ge         4.42564932       4.43236664      10.12727702        -0.79819569       0.04308691       0.18682389         0.00000000       0.00000000       0.00000000        72.63000000         32
Ge         4.28584585      10.11561131       4.36293893         0.27096292      -0.53579244       0.38068467         0.00000000       0.00000000       0.00000000        72.63000000         32
Ge         4.20704164      10.08681124       9.93329565         0.54818744       0.07539738       0.50389436         0.00000000       0.00000000       0.00000000        72.63000000         32
Ge        10.31597471       4.32402242       4.25466408        -0.22758010      -0.00707448      -0.26801822         0.00000000       0.00000000       0.00000000        72.63000000         32
Ge         9.99187853       4.45290013      10.27683852         0.53665556      -0.79695069      -0.96426477         0.00000000       0.00000000       0.00000000        72.63000000         32
Ge         9.99249130      10.02534951       4.41061917         0.20329221       0.71505960      -0.15192613         0.00000000       0.00000000       0.00000000        72.63000000         32
Ge        10.16255161      10.09380604      10.08740089         0.14901982       0.41398488      -0.56140736         0.00000000       0.00000000       0.00000000        72.63000000         32
Ge         2.96323933      11.35910145       0.06738130        -0.25430470       0.55845506       0.60603714         0.00000000       0.00000000       0.00000000        72.63000000         32
Ge         2.96886986       0.11450658       5.79312660        -0.70052311      -0.33980233      -0.09263099         0.00000000       0.00000000       0.00000000        72.63000000         32
Ge         3.03274797       5.62275412       5.76654636        -0.45707567       0.09198715       0.27397654         0.00000000       0.00000000       0.00000000        72.63000000         32
Ge         8.70262738      11.47504168      11.54459657         0.11184165       0.13892819       0.42846214         0.00000000       0.00000000       0.00000000        72.63000000         32
Ge         8.66855520      11.41793869       6.02037083         0.45466782       0.80848549      -0.42088099         0.00000000       0.00000000       0.00000000        72.63000000         32
Ge         8.55025639       5.81934842       0.16074162         0.23334401      -0.00008336      -0.01271791         0.00000000       0.00000000       0.00000000        72.63000000         32
Ge         8.73180898       5.74980509       5.61003631        -0.35475609      -0.48451434       0.25734205         0.00000000       0.00000000       0.00000000        72.63000000         32
Ge         4.47079756       1.39188392       1.40955012        -0.09831618      -0.09184807      -0.28484383         0.00000000       0.00000000       0.00000000        72.63000000         32
Ge         4.35633723       1.52191780       7.32157673         0.59798601      -0.58863880      -0.52904594         0.00000000       0.00000000       0.00000000        72.63000000         32
Ge         4.26669975       7.41968889       1.38443822         0.27060080      -0.84599204       0.08210234         0.00000000       0.00000000       0.00000000        72.63000000         32
Ge         4.23931021       7.25638058       7.19836422         0.28411990       0.00322436      -0.11219599         0.00000000       0.00000000       0.00000000        72.63000000         32
Ge        10.24805001       1.42566706       1.34849305        -1.15618455       0.11457185       0.40715299         0.00000000       0.00000000       0.00000000        72.63000000         32
Ge        10.07683354       1.59157674       7.28137687         0.17487488      -0.33320777       0.11847121         0.00000000       0.00000000       0.00000000        72.63000000         32
Ge        10.01953400       7.36981193       1.37303843         1.23940354      -0.24216298       0.05480232         0.00000000       0.00000000       0.00000000        72.63000000         32
Ge        10.02198507       7.23221673       7.07397243         0.00793969      -0.21825455       1.12077325         0.00000000       0.00000000       0.00000000        72.63000000         32
Ge         2.85461763       2.81136550       2.64537489        -0.25988244       0.72315619      -0.02022147         0.00000000       0.00000000       0.00000000        72.63000000         32
Ge         3.01612232       2.83192211       8.83022175        -0.28267618       0.24050019       0.68382321         0.00000000       0.00000000       0.00000000        72.63000000         32
Ge         2.81930835       8.67627838       2.91851887        -0.45494550       0.20307625       0.05134470         0.00000000       0.00000000       0.00000000        72.63000000         32
Ge         2.77950159       8.67379262       8.62700263        -0.75702422      -0.33232056      -0.58446109         0.00000000       0.00000000       0.00000000        72.63000000         32
Ge         8.74133578       2.82107728       2.91629903        -0.18890280      -0.07873813       0.18162813         0.00000000       0.00000000       0.00000000        72.63000000         32
Ge         8.51318974       2.94963127       8.72719589         0.55832229       0.19867297       0.29230388         0.00000000       0.00000000       0.00000000        72.63000000         32
Ge         8.63014740       8.73533529       2.84146047         0.05993265      -0.46508195       0.22146522         0.00000000       0.00000000       0.00000000        72.63000000         32
Ge         8.64868072       8.60297752       8.74113924         0.07698893       0.16581228      -0.49812335         0.00000000       0.00000000       0.00000000        72.63000000         32
Ge         1.63050481       4.55553289       0.99822130         0.64098020       0.14865576       0.61677565         0.00000000       0.00000000       0.00000000        72.63000000         32
Ge         1.67191864       4.31345507       7.43218703        -1.16095894       0.19525921      -0.57385721         0.00000000       0.00000000       0.00000000        72.63000000         32
Ge         1.22799753      10.16306032       1.55052132         0.97729705      -0.23833439       0.09096177         0.00000000       0.00000000       0.00000000        72.63000000         32
Ge         1.32585534      10.16279440       7.09938494         0.19372645       0.44931659       0.45821926         0.00000000       0.00000000       0.00000000        72.63000000         32
Ge         7.16781834       4.39109155       1.58082440         0.20672658      -0.69918435       0.18626497         0.00000000       0.00000000       0.00000000        72.63000000         32
Ge         7.15192107       4.42149869       7.25342080         0.24880427       0.22579793      -0.31499616         0.00000000       0.00000000       0.00000000        72.63000000         32
Ge         7.19266433      10.04325851       1.44613118        -0.53401686       0.78739007      -0.48615435         0.00000000       0.00000000       0.00000000        72.63000000         32
Ge         7.11705114      10.05051922       7.25988376         0.51867605      -1.28089790      -0.03386158         0.00000000       0.00000000       0.00000000        72.63000000         32
Ge        11.39996032       0.06319598       3.01692007         0.19647801      -0.33405648       0.05829801         0.00000000       0.00000000       0.00000000        72.63000000         32
Ge         0.07979851       0.20368159       8.74039929        -0.69026771      -1.07400458      -0.68701920         0.00000000       0.00000000       0.00000000        72.63000000         32
Ge         0.13043854       5.83185812       2.65344492        -0.33694164      -0.08596111       0.23906372         0.00000000       0.00000000       0.00000000        72.63000000         32
Ge        11.52912708       5.82806590       8.68726195        -0.17270226      -0.23542422      -0.08526978         0.00000000       0.00000000       0.00000000        72.63000000         32
Ge         5.75471879      11.44564040       2.96056859         0.73673766       0.78700451      -0.02300672         0.00000000       0.00000000       0.00000000        72.63000000         32
Ge         5.76888182      11.44761745       8.61796142        -0.36321551       1.40154457       0.76057754         0.00000000       0.00000000       0.00000000        72.63000000         32
Ge         5.67747541       5.81626146       2.94319143        -0.42749770       0.33206955      -0.88607250         0.00000000       0.00000000       0.00000000        72.63000000         32
Ge         5.70824096       5.95083906       8.69599099         0.26150063      -0.39635234      -0.31408497         0.00000000       0.00000000       0.00000000        72.63000000         32
Ge         1.43379490       1.48952205       4.27208748         0.18845337       0.00490525       0.49157712         0.00000000       0.00000000       0.00000000        72.63000000         32
Ge         1.57238440       1.34690910      10.27479211         0.09334695       0.61210933      -0.08354880         0.00000000       0.00000000       0.00000000        72.63000000         32
Ge         1.52486602       7.06716262       4.37987675        -0.41155495       0.35784622      -0.36985706         0.00000000       0.00000000       0.00000000        72.63000000         32
Ge         1.51311938       7.12219607      10.16382339         0.31693665      -0.14451635       0.25248270         0.00000000       0.00000000       0.00000000        72.63000000         32
Ge         7.24913143       1.35870198       4.59907407         0.46714200      -0.40467945      -1.47713428         0.00000000       0.00000000       0.00000000        72.63000000         32
Ge         7.21984577       1.37821805      10.18967524        -0.26301096      -0.05015471      -0.57594555         0.00000000       0.00000000       0.00000000        72.63000000         32
Ge         7.25960628       7.20146274       4.19891380         0.06715001       0.00387420       0.54261439         0.00000000       0.00000000       0.00000000        72.63000000         32
Ge         7.20365946       7.18720723      10.21041684         0.12042234       0.19840501      -0.47570222         0.00000000       0.00000000       0.00000000        72.63000000         32
Ge         0.08473533       2.92377942      11.55710627        -0.23236286       0.24203910      -0.43839505         0.00000000       0.00000000       0.00000000        72.63000000         32
Ge         0.11352384       2.95462590       5.86505162         0.16468246       0.08418322      -0.04094785         0.00000000       0.00000000       0.00000000        72.63000000         32
Ge         0.11870346       8.70962218      11.47375834        -0.69305788      -0.40113404       0.30602852         0.00000000       0.00000000       0.00000000        72.63000000         32
Ge        11.48766700       8.58421296       5.70865718         0.92752038       0.04972655      -0.09615628         0.00000000       0.00000000       0.00000000        72.63000000         32
Ge         5.82611198       3.03023910      11.51358822         0.15857839      -0.73064919       0.63531351         0.00000000       0.00000000       0.00000000        72.63000000         32
Ge         5.82167231       2.87689693       5.81952184        -0.58697424       0.55305365       0.12269222         0.00000000       0.00000000       0.00000000        72.63000000         32
Ge         5.71713187       8.72516104      11.37584272        -0.08036997       0.09935320       0.69054898         0.00000000       0.00000000       0.00000000        72.63000000         32
Ge         5.81153274       8.51121270       5.73242793        -0.35118843       0.82812307      -0.09374493         0.00000000       0.00000000       0.00000000        72.63000000         32
63
pbc=[T, T, T] energy=-278.50328606 Lattice="11.56165000 0.00000000 0.00000000 0.00000000 11.56165000 0.00000000 0.00000000 0.00000000 11.56165000" Properties=species:S:1:pos:R:3:force:R:3:momenta:R:3:masses:R:1:Z:I:1
Ge         4.27102381       4.39388947       4.32508609         0.25963977       0.06292493       0.32580180         0.00000000       0.00000000       0.00000000        72.63000000         32
Ge         4.09222289       4.41745211      10.17905008         0.42462811      -0.18282970       0.43380770         0.00000000       0.00000000       0.00000000        72.63000000         32
Ge         4.32556011      10.04096930       4.16374326        -0.38584425       0.07024685       0.53473615         0.00000000       0.00000000       0.00000000        72.63000000         32
Ge         4.40634136      10.11993537      10.21121460        -0.10948603      -0.06535206      -0.01885174         0.00000000       0.00000000       0.00000000        72.63000000         32
Ge        10.07802439       4.16870321       4.38981977         0.27733001       1.01475313       0.44306654         0.00000000       0.00000000       0.00000000        72.63000000         32
Ge        10.19864708       4.61191906      10.12206271        -0.29564972      -1.07244778       0.33440736         0.00000000       0.00000000       0.00000000        72.63000000         32
Ge        10.06714487      10.12038627       4.29583511         0.16953967      -0.02013914       0.17446204         0.00000000       0.00000000       0.00000000        72.63000000         32
Ge        10.18860001      10.08363179      10.13991390        -0.28543384      -0.21342389      -0.06961696         0.00000000       0.00000000       0.00000000        72.63000000         32
Ge         2.90827525       0.13524818       0.01848708         0.49358456      -0.50011306       0.35863775         0.00000000       0.00000000       0.00000000        72.63000000         32
Ge         2.95346974       0.08398383       5.62667352         0.00787308      -0.83970366       0.46718085         0.00000000       0.00000000       0.00000000        72.63000000         32
Ge         2.72528901       5.72757204       5.81449252         0.50246930       0.74671607      -0.86726444         0.00000000       0.00000000       0.00000000        72.63000000         32
Ge         8.69351680      11.56077131      11.55685192         0.11424679      -0.38658376       0.15433259         0.00000000       0.00000000       0.00000000        72.63000000         32
Ge         8.59143899      11.45046161       5.85477331         0.38102285       0.45385079      -0.85105984         0.00000000       0.00000000       0.00000000        72.63000000         32
Ge         8.69241844       5.86682055       0.11671486        -0.09363261      -0.37297181      -0.72302473         0.00000000       0.00000000       0.00000000        72.63000000         32
Ge         8.62697950       5.84936246       5.76729787         0.47686861      -0.27267663       0.42252942         0.00000000       0.00000000       0.00000000        72.63000000         32
Ge         4.45642643       1.57896298       1.54179227        -0.29722052      -0.75256336      -0.20660633         0.00000000       0.00000000       0.00000000        72.63000000         32
Ge         4.36496222       1.51113078       7.12528303         0.13550617       0.10000519       0.01941774         0.00000000       0.00000000       0.00000000        72.63000000         32
Ge         4.36647679       7.09026279       1.23903891        -0.41867531       0.26982596      -0.64590660         0.00000000       0.00000000       0.00000000        72.63000000         32
Ge         4.31206767       7.11816106       7.25512036        -0.21619009      -0.29371806       0.06915731         0.00000000       0.00000000       0.00000000        72.63000000         32
Ge        10.10829279       1.46441015       1.43806115        -0.27583542      -0.03665493       0.02122816         0.00000000       0.00000000       0.00000000        72.63000000         32
Ge         9.99025990       1.27142309       7.31683645         0.40150828       0.17176115       0.48417645         0.00000000       0.00000000       0.00000000        72.63000000         32
Ge        10.13656102       7.12641607       1.58037350        -0.01570794       0.73630432       0.18116583         0.00000000       0.00000000       0.00000000        72.63000000         32
Ge        10.14873544       7.40232329       7.23300292        -0.51777881       0.05219820      -1.07940248         0.00000000       0.00000000       0.00000000        72.63000000         32
Ge         2.87594888       2.88514039       2.95748163        -0.31420499      -0.09726968      -0.11696001         0.00000000       0.00000000       0.00000000        72.63000000         32
Ge         2.80973531       2.92751383       8.49565072        -0.00831791       0.20922953       0.58032483         0.00000000       0.00000000       0.00000000        72.63000000         32
Ge         2.92241515       8.50405604       2.73152074        -0.20270904       0.23246006      -0.00255416         0.00000000       0.00000000       0.00000000        72.63000000         32