53
pbc=[T, T, T] energy=-98.30410711 Lattice="10.28045100 0.00000000 0.00000000 0.00000000 10.28045100 0.00000000 0.00000000 0.00000000 10.28045100" Properties=species:S:1:pos:R:3:force:R:3:momenta:R:3:masses:R:1:Z:I:1
Li        10.11642640       0.23734477       0.05473312         0.10077914      -0.32080130       0.26922835         0.00000000       0.00000000       0.00000000         6.94000000          3
Li         0.25554117       9.97148233       3.33365213        -0.23112775       0.09633271      -0.06416702         0.00000000       0.00000000       0.00000000         6.94000000          3
Li         0.02290484       0.18950983       6.85434678        -0.06950448      -0.28681514      -0.03427854         0.00000000       0.00000000       0.00000000         6.94000000          3
Li         0.16329468       3.23783832      10.10706091        -0.02159044       0.19827423       0.23170423         0.00000000       0.00000000       0.00000000         6.94000000          3
Li        10.11273572       3.69855673       3.29959299        -0.10549140      -0.27284322       0.06095822         0.00000000       0.00000000       0.00000000         6.94000000          3
Li         0.27640021       3.51208991       6.98796180        -0.09078068      -0.27889339      -0.12516198         0.00000000       0.00000000       0.00000000         6.94000000          3
Li         9.94982142       6.97495703      10.08115418         0.21419437      -0.10911486       0.22485992         0.00000000       0.00000000       0.00000000         6.94000000          3
Li         9.96579724       6.68808104       3.48766356         0.20942035      -0.02274047       0.00414881         0.00000000       0.00000000       0.00000000         6.94000000          3
Li        10.10059451       6.97549161       6.91778744         0.18692254      -0.13650167       0.12626248         0.00000000       0.00000000       0.00000000         6.94000000          3
Li         3.83835031       9.91991558       9.74076844        -0.05695142      -0.03855533       0.23496253         0.00000000       0.00000000       0.00000000         6.94000000          3
Li         3.35752333       0.05276955       3.38712075         0.17858235      -0.08859036      -0.00025570         0.00000000       0.00000000       0.00000000         6.94000000          3
Li         3.25765903       0.04636483       6.74005900         0.00428273      -0.01873559      -0.19508966         0.00000000       0.00000000       0.00000000         6.94000000          3
Li         3.39015348       3.28259941      10.17765677        -0.15902688       0.33862010      -0.24116952         0.00000000       0.00000000       0.00000000         6.94000000          3
Li         3.65110217       3.63198053       3.52686292         0.00217368      -0.03357275       0.01936738         0.00000000       0.00000000       0.00000000         6.94000000          3
Li         3.33184277       3.09772606       6.83385784        -0.01381803       0.04093354      -0.02141500         0.00000000       0.00000000       0.00000000         6.94000000          3
Li         3.50111039       6.77753125      10.22865809         0.01313167      -0.06678973       0.01402007         0.00000000       0.00000000       0.00000000         6.94000000          3
Li         3.29518268       7.08387841       3.39993019        -0.06976440      -0.48542174       0.00865722         0.00000000       0.00000000       0.00000000         6.94000000          3
Li         4.00652821       7.70352231       7.65131818         0.32998170      -0.09499223      -0.10601715         0.00000000       0.00000000       0.00000000         6.94000000          3
Li         6.78973414       9.95235041       0.25029814        -0.13271287       0.23941583      -0.11447806         0.00000000       0.00000000       0.00000000         6.94000000          3
Li         6.53717430      10.20195976       3.52417972         0.00499662      -0.03872922      -0.08942613         0.00000000       0.00000000       0.00000000         6.94000000          3
Li         6.77234990       3.20235021       0.11847192         0.19383563       0.12787823      -0.14873049         0.00000000       0.00000000       0.00000000         6.94000000          3
Li         6.98478514       3.75189171       3.83670544        -0.27817588      -0.14165951      -0.24397358         0.00000000       0.00000000       0.00000000         6.94000000          3
Li         6.75216938       3.12888610       6.85822251         0.35471660       0.23524624       0.09876591         0.00000000       0.00000000       0.00000000         6.94000000          3
Li         6.64893309       6.64843962      10.12455824         0.02638468       0.28982710       0.04625451         0.00000000       0.00000000       0.00000000         6.94000000          3
Li         6.53267147       6.81226889       3.59628681         0.32392164      -0.33964075       0.16289582         0.00000000       0.00000000       0.00000000         6.94000000          3
Li         7.11409265       6.74972263       7.32228207        -0.24974175       0.04091024      -0.32670279         0.00000000       0.00000000       0.00000000         6.94000000          3
Li         1.86228314       2.06005845       1.83142122        -0.12991046      -0.26680820      -0.00574756         0.00000000       0.00000000       0.00000000         6.94000000          3
Li         1.62232713       1.75059632       4.84834294        -0.06105254       0.12851187       0.10960591         0.00000000       0.00000000       0.00000000         6.94000000          3
Li         1.68084346       1.44132951       8.55228663         0.19549607       0.09032842       0.18062252         0.00000000       0.00000000       0.00000000         6.94000000          3
Li         1.57876886       5.21682514       1.63247394         0.10879851       0.10062313      -0.08866302         0.00000000       0.00000000       0.00000000         6.94000000          3
Li         1.72176993       5.04025839       5.01218248         0.01630170       0.21967380       0.12984024         0.00000000       0.00000000       0.00000000         6.94000000          3
Li         2.25609637       5.36291035       8.11093658        -0.26397885       0.06288884       0.07605379         0.00000000       0.00000000       0.00000000         6.94000000          3
Li         1.99732714       8.53227059       1.51691139        -0.30596818       0.11948565      -0.13087343         0.00000000       0.00000000       0.00000000         6.94000000          3
Li         1.60781113       8.30603898       5.16646121         0.10507514       0.11301282       0.19410822         0.00000000       0.00000000       0.00000000         6.94000000          3
Li         1.53394609       8.47562530       8.61882170        -0.11822077       0.21560772      -0.00958770         0.00000000       0.00000000       0.00000000         6.94000000          3
Li         4.93273516       1.85070735       1.47996345         0.12247063      -0.33948577       0.38029895         0.00000000       0.00000000       0.00000000         6.94000000          3
Li         5.17083040       1.75910853       5.29128645        -0.13164824      -0.10898453      -0.33129948         0.00000000       0.00000000       0.00000000         6.94000000          3
Li         5.08778492       1.76668522       8.54607723         0.08926038      -0.13962953       0.03923249         0.00000000       0.00000000       0.00000000         6.94000000          3
Li         5.02998822       5.10714301       1.59974098         0.01041004      -0.06672211       0.12887011         0.00000000       0.00000000       0.00000000         6.94000000          3
Li         4.95831292       5.30328373       5.78873691        -0.10390215       0.08670605      -0.20890437         0.00000000       0.00000000       0.00000000         6.94000000          3
Li         5.26226473       4.89573581       8.56152875        -0.09218025      -0.17670829       0.08367286         0.00000000       0.00000000       0.00000000         6.94000000          3
Li         5.12746746       8.21816169       1.86116257        -0.02594953       0.28336129      -0.23019137         0.00000000       0.00000000       0.00000000         6.94000000          3
Li         4.94447543       8.44368394       5.01138061         0.02704068       0.13409570       0.29289011         0.00000000       0.00000000       0.00000000         6.94000000          3
Li         6.49601138      10.07111018       6.95495127        -0.00681655      -0.06009934       0.05431759         0.00000000       0.00000000       0.00000000         6.94000000          3
Li         8.25038062       1.59078671       1.97840083         0.23439367       0.08814601      -0.03385921         0.00000000       0.00000000       0.00000000         6.94000000          3
Li         8.45562983       1.37232712       5.06269034         0.11965998       0.22212744       0.06784927         0.00000000       0.00000000       0.00000000         6.94000000          3
Li         8.58105133       1.65959377       8.63981439        -0.27090765      -0.00931861      -0.16104842         0.00000000       0.00000000       0.00000000         6.94000000          3
Li         8.29313702       5.21408026       1.55106304         0.06632708      -0.12211648       0.05158599         0.00000000       0.00000000       0.00000000         6.94000000          3
Li         8.59861034       5.09535133       5.58302509        -0.00087644       0.00118671      -0.14821568         0.00000000       0.00000000       0.00000000         6.94000000          3
Li         8.80053896       4.86870851       8.67774925        -0.30324467       0.05946410      -0.02528961         0.00000000       0.00000000       0.00000000         6.94000000          3
Li         8.35985714       8.30003520       1.92800606         0.02742516       0.19672585      -0.11421856         0.00000000       0.00000000       0.00000000         6.94000000          3
Li         8.59783930       8.53549865       5.20812788        -0.26890646       0.10854865      -0.01926458         0.00000000       0.00000000       0.00000000         6.94000000          3
Li         8.32581857       8.66449775       8.68447266         0.29626597       0.22633786      -0.07300486         0.00000000       0.00000000       0.00000000         6.94000000          3
53
pbc=[T, T, T] energy=-97.97988176 Lattice="10.28045100 0.00000000 0.00000000 0.00000000 10.28045100 0.00000000 0.00000000 0.00000000 10.28045100" Properties=species:S:1:pos:R:3:force:R:3:momenta:R:3:masses:R:1:Z:I:1
Li         9.86950025       9.91588565      10.07173728         0.33449744       0.31030438      -0.05978047         0.00000000       0.00000000       0.00000000         6.94000000          3
Li         0.06127149      10.16632771       3.52148625        -0.15044559       0.02661793       0.04930075         0.00000000       0.00000000       0.00000000         6.94000000          3
Li        10.06457181      10.20332706       6.82503721         0.04280889      -0.08178892      -0.06491931         0.00000000       0.00000000       0.00000000         6.94000000          3
Li        10.27837435       3.62205990      10.00279658        -0.41086687      -0.29623093       0.20288483         0.00000000       0.00000000       0.00000000         6.94000000          3
Li        10.13821068       3.17667992       3.54960328         0.04319457       0.22542383       0.08316653         0.00000000       0.00000000       0.00000000         6.94000000          3
Li        10.07741209       3.33409419       6.76672649         0.17382710      -0.10893752       0.00700492         0.00000000       0.00000000       0.00000000         6.94000000          3
Li        10.22986090       6.55971933       9.87053858        -0.00405011       0.26866796       0.18200914         0.00000000       0.00000000       0.00000000         6.94000000          3
Li         0.34987459       6.37464037       3.54722850        -0.08868560       0.09545717       0.23894413         0.00000000       0.00000000       0.00000000         6.94000000          3
Li         0.19763139       6.61255057       6.69381754        -0.25957792      -0.29345668       0.14954545         0.00000000       0.00000000       0.00000000         6.94000000          3
Li         3.02844610      10.16397349       0.44752859         0.28703020       0.05348787      -0.44902431         0.00000000       0.00000000       0.00000000         6.94000000          3
Li         3.25946839      10.13979387       3.75290948        -0.12738058       0.02329029      -0.18592045         0.00000000       0.00000000       0.00000000         6.94000000          3
Li         3.30687155       0.31758369       7.16712950         0.14480299      -0.29414428       0.00612865         0.00000000       0.00000000       0.00000000         6.94000000          3
Li         3.03914805       3.25170665      10.27834351         0.44196527       0.15688730       0.24489421         0.00000000       0.00000000       0.00000000         6.94000000          3
Li         2.90091710       3.48526822       3.56582583         0.10741412       0.33924635      -0.01931315         0.00000000       0.00000000       0.00000000         6.94000000          3
Li         3.38172352       3.50828615       6.66838370        -0.13937076      -0.02007311       0.18366596         0.00000000       0.00000000       0.00000000         6.94000000          3
Li         3.47304476       6.73191689      10.27883697        -0.20507327       0.08057350      -0.24079192         0.00000000       0.00000000       0.00000000         6.94000000          3
Li         3.47889434       6.88050025       3.42739956        -0.19648453      -0.11578209       0.16023193         0.00000000       0.00000000       0.00000000         6.94000000          3
Li         5.00290952       8.45607189       8.41315100        -0.02916300       0.08591402       0.24215819         0.00000000       0.00000000       0.00000000         6.94000000          3
Li         6.81206328      10.17615582      10.17550816        -0.10720363      -0.05230774       0.09666981         0.00000000       0.00000000       0.00000000         6.94000000          3
Li         7.02961819      10.21840848       2.97459709        -0.20498904      -0.04495254       0.02037548         0.00000000       0.00000000       0.00000000         6.94000000          3
Li         6.91405564       3.14869653      10.27805565         0.24700599       0.41105170       0.47641001         0.00000000       0.00000000       0.00000000         6.94000000          3
Li         6.77218541       3.36315702       3.22953172        -0.06686386       0.10657834       0.07571479         0.00000000       0.00000000       0.00000000         6.94000000          3
Li         6.66891828       3.15773305       6.61463750        -0.00706638       0.38381908       0.20104762         0.00000000       0.00000000       0.00000000         6.94000000          3
Li         6.86127580       6.89752467       0.05031253        -0.07974180      -0.11605986      -0.07627266         0.00000000       0.00000000       0.00000000         6.94000000          3
Li         6.73409634       6.73319166       3.37812536         0.00450385      -0.03173802      -0.16240950         0.00000000       0.00000000       0.00000000         6.94000000          3
Li         6.45347087       6.86879081       6.52918639         0.33012648      -0.08937427       0.20906771         0.00000000       0.00000000       0.00000000         6.94000000          3
Li         1.48910277       1.72038207       1.70485859        -0.16502990      -0.05551885       0.07579913         0.00000000       0.00000000       0.00000000         6.94000000          3
Li         1.76611980       1.56486969       5.18070992        -0.27037735      -0.01104459       0.12958064         0.00000000       0.00000000       0.00000000         6.94000000          3
Li         1.58821659       1.82244639       8.60824312        -0.23487389      -0.29097645      -0.05452508         0.00000000       0.00000000       0.00000000         6.94000000          3
Li         1.61611774       5.23882531       1.42794436         0.06075769      -0.14038482       0.08533635         0.00000000       0.00000000       0.00000000         6.94000000          3
Li         3.66627612       6.50149086       6.88654515        -0.32826584       0.17696868      -0.05396204         0.00000000       0.00000000       0.00000000         6.94000000          3
Li         1.75772067       4.87891700       8.56079884         0.17694496       0.30077935      -0.31010475         0.00000000       0.00000000       0.00000000         6.94000000          3
Li         1.62704586       8.54736229       1.99690564        -0.12092237      -0.33409650      -0.17554763         0.00000000       0.00000000       0.00000000         6.94000000          3
Li         1.72025871       8.29762957       5.50807032         0.27998064       0.37315922      -0.21896691         0.00000000       0.00000000       0.00000000         6.94000000          3
Li         1.78533396       8.22222247       8.52786027        -0.04166428       0.26380682       0.07708249         0.00000000       0.00000000       0.00000000         6.94000000          3
Li         4.65206856       1.67950700       2.20525954         0.18522868       0.02095057      -0.27106077         0.00000000       0.00000000       0.00000000         6.94000000          3
Li         4.90967611       1.73195786       5.29624162         0.02655888      -0.07760813      -0.39294746         0.00000000       0.00000000       0.00000000         6.94000000          3
Li         5.21970367       2.03383302       8.94102132        -0.55413266      -0.53057847      -0.38676438         0.00000000       0.00000000       0.00000000         6.94000000          3
Li         5.00097679       5.33780549       1.60557000         0.08435896      -0.58932670       0.06442438         0.00000000       0.00000000       0.00000000         6.94000000          3
Li         5.09593732       5.13497219       5.02684241         0.07510593      -0.31668237      -0.26280649         0.00000000       0.00000000       0.00000000         6.94000000          3
Li         5.21942609       4.87146367       8.67127257        -0.01750681       0.19512951      -0.06932376         0.00000000       0.00000000       0.00000000         6.94000000          3
Li         4.98055982       8.34412805       1.65190399         0.12038638       0.33189913       0.08539292         0.00000000       0.00000000       0.00000000         6.94000000          3
Li         5.16433316       8.72016639       4.89561245        -0.05919247      -0.11453233       0.03338508         0.00000000       0.00000000       0.00000000         6.94000000          3
Li         6.48253371      10.19018864       6.69476334         0.24858558      -0.00962787       0.14129071         0.00000000       0.00000000       0.00000000         6.94000000          3
Li         8.73314032       1.83245955       1.62090843         0.03238533      -0.25077977      -0.14428270         0.00000000       0.00000000       0.00000000         6.94000000          3
Li         8.17641278       1.56410894       4.90457700         0.21468018      -0.09582170       0.10703569         0.00000000       0.00000000       0.00000000         6.94000000          3
Li         8.14316580       1.58196608       8.26388913         0.29749830       0.05098600       0.11977876         0.00000000       0.00000000       0.00000000         6.94000000          3
Li         8.66491925       5.13278245       1.79096765        -0.05564390      -0.03458074      -0.10073944         0.00000000       0.00000000       0.00000000         6.94000000          3
Li         8.47417576       4.99587769       5.25605534        -0.22404688       0.11513890      -0.20698983         0.00000000       0.00000000       0.00000000         6.94000000          3
Li         8.32535595       5.14124326       8.42831467        -0.12744748      -0.15242798      -0.11281123         0.00000000       0.00000000       0.00000000         6.94000000          3
Li         8.73299639       8.27741821       1.54743405         0.04008716      -0.11416091       0.26386907         0.00000000       0.00000000       0.00000000         6.94000000          3
Li         8.41139305       8.23264684       4.77569099         0.27776352       0.15321337       0.26693202         0.00000000       0.00000000       0.00000000         6.94000000          3
Li         8.35243466       8.21257940       8.36298240        -0.00143233       0.11364291      -0.25986307         0.00000000       0.00000000       0.00000000         6.94000000          3
53
pbc=[T, T, T] energy=-98.22367314 Lattice="10.28045100 0.00000000 0.00000000 0.00000000 10.28045100 0.00000000 0.00000000 0.00000000 10.28045100" Properties=species:S:1:pos:R:3:force:R:3:momenta:R:3:masses:R:1:Z:I:1
Li         0.00935521      10.01810417       9.99738906        -0.04468993       0.00813066       0.08966966         0.00000000       0.00000000       0.00000000         6.94000000          3
Li        10.02433412      10.26183310       2.91992566         0.14810369       0.14068180       0.12237288         0.00000000       0.00000000       0.00000000         6.94000000          3
Li         0.12763180      10.24214604       6.56695677        -0.15670882       0.10665260       0.56126462         0.00000000       0.00000000       0.00000000         6.94000000          3
Li         9.97281878       3.57126419       9.84216453         0.15013246      -0.31986362       0.30979748         0.00000000       0.00000000       0.00000000         6.94000000          3
Li         0.25361873       3.52175354       3.62722068        -0.20125965      -0.02795879       0.06175269         0.00000000       0.00000000       0.00000000         6.94000000          3
Li         0.20746978       3.55133040       6.77511534        -0.10038758       0.04367444      -0.01508693         0.00000000       0.00000000       0.00000000         6.94000000          3
Li        10.07422515       6.60481967       0.17478823         0.14468949       0.04093018      -0.17915489         0.00000000       0.00000000       0.00000000         6.94000000          3
Li         0.04348631       6.51641807       3.51821706        -0.02516420       0.01925873       0.00880752         0.00000000       0.00000000       0.00000000         6.94000000          3
Li        10.14895375       6.76741528       6.79365100        -0.15999292       0.15279900       0.11053978         0.00000000       0.00000000       0.00000000         6.94000000          3
Li         3.58451569      10.04122491       0.23031294        -0.34104496       0.03286988       0.08789850         0.00000000       0.00000000       0.00000000         6.94000000          3
Li         3.18075098       0.10443910       3.36800939         0.14413887       0.06904123       0.09402747         0.00000000       0.00000000       0.00000000         6.94000000          3
Li         3.07239502      10.13427327       7.03152007         0.02275488      -0.04226937      -0.03532910         0.00000000       0.00000000       0.00000000         6.94000000          3
Li         3.42584721       3.25462630       0.23418867         0.07584066       0.12540017      -0.14147722         0.00000000       0.00000000       0.00000000         6.94000000          3
Li         3.41749948       3.40240778       3.60659810        -0.04619527       0.12503705      -0.22230163         0.00000000       0.00000000       0.00000000         6.94000000          3
Li         3.22431953       3.33890544       6.51289188        -0.20218924       0.33480419       0.45762810         0.00000000       0.00000000       0.00000000         6.94000000          3
Li         3.52852836       6.65079385       0.30049758         0.00020322       0.03508655      -0.17048137         0.00000000       0.00000000       0.00000000         6.94000000          3
Li         3.50688801       6.64648634       3.48823927        -0.19073671      -0.21880950       0.11470656         0.00000000       0.00000000       0.00000000         6.94000000          3
Li         5.07120255       8.51431064       8.60638236        -0.25686217      -0.11010878      -0.16178617         0.00000000       0.00000000       0.00000000         6.94000000          3
Li         6.70976252       9.89594157      10.27173318         0.13369110       0.23765626       0.12261131         0.00000000       0.00000000       0.00000000         6.94000000          3
Li         7.07509890       0.00681594       3.27434420        -0.42769742      -0.12960693       0.07240242         0.00000000       0.00000000       0.00000000         6.94000000          3
Li         6.79793794       3.43161454      10.11609743        -0.28679384       0.05945703      -0.16997363         0.00000000       0.00000000       0.00000000         6.94000000          3
Li         6.63682272       3.05451732       3.82484179         0.06298001       0.19661670      -0.17245463         0.00000000       0.00000000       0.00000000         6.94000000          3
Li         6.72880191       3.35817100       7.07751481        -0.13741543       0.03710611      -0.19713881         0.00000000       0.00000000       0.00000000         6.94000000          3
Li         6.83880274       6.78200324      10.11412358        -0.13359210      -0.12621320       0.12656784         0.00000000       0.00000000       0.00000000         6.94000000          3
Li         7.02876491       6.59934019       3.50961233        -0.02749732       0.27343637      -0.10958586         0.00000000       0.00000000       0.00000000         6.94000000          3
Li         6.44749793       7.17871557       6.60528229         0.49258482      -0.29595673       0.10723803         0.00000000       0.00000000       0.00000000         6.94000000          3
Li         1.40554326       1.68248833       1.62572996         0.11458478       0.15797126      -0.15585512         0.00000000       0.00000000       0.00000000         6.94000000          3
Li         1.61998319       1.67147797       5.10639254        -0.08186046      -0.27592762      -0.13065868         0.00000000       0.00000000       0.00000000         6.94000000          3
Li         1.69138092       1.75545897       8.72416549         0.04511005      -0.06261066      -0.13623213         0.00000000       0.00000000       0.00000000         6.94000000          3
Li         1.63855996       4.91901076       1.63591789         0.05501542       0.04470281      -0.05385714         0.00000000       0.00000000       0.00000000         6.94000000          3
Li         2.42104621       6.28160229       6.20117832         0.30173924      -0.03655246      -0.12722113         0.00000000       0.00000000       0.00000000         6.94000000          3
Li         1.72723913       5.00312541       8.76128819         0.07490520       0.11049349       0.01258921         0.00000000       0.00000000       0.00000000         6.94000000          3
Li         1.85075875       8.27521819       1.90904891        -0.28623355       0.09637301      -0.18206702         0.00000000       0.00000000       0.00000000         6.94000000          3
Li         1.24551776       8.68203620       4.86495614         0.54784327      -0.08466544      -0.12688344         0.00000000       0.00000000       0.00000000         6.94000000          3
Li         1.83090720       8.14411160       8.68608670        -0.05477725      -0.03194399      -0.06437960         0.00000000       0.00000000       0.00000000         6.94000000          3
Li         5.22891495       1.74524020       1.75397859        -0.07424909      -0.13420837       0.04142929         0.00000000       0.00000000       0.00000000         6.94000000          3
Li         4.73077570       1.69479403       5.55185476         0.34014830      -0.32443939      -0.31552349         0.00000000       0.00000000       0.00000000         6.94000000          3
Li         4.90647889       1.43789584       8.76931723         0.15728049       0.14773899      -0.25549300         0.00000000       0.00000000       0.00000000         6.94000000          3
Li         5.27472464       5.07580819       1.69819686         0.10367024      -0.18143456       0.18761703         0.00000000       0.00000000       0.00000000         6.94000000          3
Li         5.29059766       5.12288238       5.18928381        -0.14926547      -0.08547656      -0.02195674         0.00000000       0.00000000       0.00000000         6.94000000          3
Li         4.70286427       5.28414153       8.11712542         0.06869199       0.00691989       0.23959102         0.00000000       0.00000000       0.00000000         6.94000000          3
Li         4.98914399       8.34417946       2.09995688         0.36953911       0.15066801      -0.12759369         0.00000000       0.00000000       0.00000000         6.94000000          3
Li         4.80450709       8.60794499       5.27891906        -0.38134611      -0.01511512      -0.35934601         0.00000000       0.00000000       0.00000000         6.94000000          3
Li         6.59587568      10.22125616       6.45873446         0.24070183       0.10357353       0.30459162         0.00000000       0.00000000       0.00000000         6.94000000          3
Li         8.26374521       1.75047295       1.36531586         0.27243876      -0.11136596       0.02475922         0.00000000       0.00000000       0.00000000         6.94000000          3
Li         8.52935094       1.63980390       5.13348152         0.27390901       0.11148360      -0.00786953         0.00000000       0.00000000       0.00000000         6.94000000          3