53
pbc=[T, T, T] energy=-98.37064693 Lattice="10.28045100 0.00000000 0.00000000 0.00000000 10.28045100 0.00000000 0.00000000 0.00000000 10.28045100" Properties=species:S:1:pos:R:3:force:R:3:momenta:R:3:masses:R:1:Z:I:1
Li        10.06448957       9.96898418       9.95143545         0.21718103       0.16389488       0.09953870         0.00000000       0.00000000       0.00000000         6.94000000          3
Li         0.13501316      10.23159830       3.35896260        -0.06334381       0.03026473       0.03528289         0.00000000       0.00000000       0.00000000         6.94000000          3
Li         0.08117444       0.10012131       6.72962435        -0.17141624      -0.19318588       0.03253167         0.00000000       0.00000000       0.00000000         6.94000000          3
Li        10.15150330       3.29450417      10.23700581        -0.15948691       0.09835463       0.11361556         0.00000000       0.00000000       0.00000000         6.94000000          3
Li         0.08230529       3.21002970       3.40295265        -0.16674014       0.13497154       0.10108434         0.00000000       0.00000000       0.00000000         6.94000000          3
Li        10.18214933       3.60422332       6.78715375         0.11009366      -0.08983578       0.17601637         0.00000000       0.00000000       0.00000000         6.94000000          3
Li         0.00410190       6.91367526       0.20841558         0.00567692      -0.17454323      -0.21855276         0.00000000       0.00000000       0.00000000         6.94000000          3
Li         0.18860515       6.37498991       3.41670789         0.12508544       0.29429299       0.02550338         0.00000000       0.00000000       0.00000000         6.94000000          3
Li         9.99293763       6.82455403       6.98141315         0.28461899       0.18361383      -0.04361474         0.00000000       0.00000000       0.00000000         6.94000000          3
Li         3.17976406      10.12641900      10.20614390         0.14296517       0.06752938       0.12631818         0.00000000       0.00000000       0.00000000         6.94000000          3
Li         3.33772318      10.20665792       3.63414971        -0.01891079      -0.02343821      -0.02275180         0.00000000       0.00000000       0.00000000         6.94000000          3
Li         2.98623457       0.21226047       7.10061498         0.42237014      -0.18417327      -0.19895080         0.00000000       0.00000000       0.00000000         6.94000000          3
Li         3.36004204       3.30322199      10.07794668         0.38063740      -0.12968883      -0.04736292         0.00000000       0.00000000       0.00000000         6.94000000          3
Li         3.36319814       3.34256528       2.93922206         0.04260926      -0.27647466       0.61912842         0.00000000       0.00000000       0.00000000         6.94000000          3
Li         3.38258707       3.49017199       6.79199584         0.04605980      -0.05856438       0.36899039         0.00000000       0.00000000       0.00000000         6.94000000          3
Li         3.44661372       6.79077247       0.00407106        -0.03731507      -0.10354102       0.36671474         0.00000000       0.00000000       0.00000000         6.94000000          3
Li         3.58618112       6.60255797       3.23175230        -0.23279350       0.22986070      -0.17875203         0.00000000       0.00000000       0.00000000         6.94000000          3
Li         5.00855348       8.45904294       8.86968527         0.00859387       0.18717983      -0.36534808         0.00000000       0.00000000       0.00000000         6.94000000          3
Li         6.72974771      10.26883409      10.01886492         0.13188766      -0.08282571       0.27391772         0.00000000       0.00000000       0.00000000         6.94000000          3
Li         6.56829323      10.00925270       3.80880429        -0.12874182      -0.03404204      -0.03688994         0.00000000       0.00000000       0.00000000         6.94000000          3
Li         6.94599700       3.14095535       9.87910219        -0.02724613       0.35899173       0.50137101         0.00000000       0.00000000       0.00000000         6.94000000          3
Li         6.73198885       3.58779516       3.70526987         0.15657998      -0.16254826      -0.23194208         0.00000000       0.00000000       0.00000000         6.94000000          3
Li         6.85566268       3.63973199       6.92634078        -0.01848591       0.09389950      -0.12508457         0.00000000       0.00000000       0.00000000         6.94000000          3
Li         6.66096121       6.90273686       0.14356650         0.27010181      -0.17522835      -0.00553270         0.00000000       0.00000000       0.00000000         6.94000000          3
Li         6.63728534       6.75367032       3.72253075         0.08655444       0.10674305      -0.34015980         0.00000000       0.00000000       0.00000000         6.94000000          3
Li         6.91583416       6.89395736       6.49581605        -0.06321818      -0.17893071       0.39178353         0.00000000       0.00000000       0.00000000         6.94000000          3
Li         1.55087800       1.68487339       1.44541085         0.04908726      -0.27815922       0.10808446         0.00000000       0.00000000       0.00000000         6.94000000          3
Li         1.69699405       1.85870554       5.23831128         0.03129720       0.03435976      -0.19413177         0.00000000       0.00000000       0.00000000         6.94000000          3
Li         1.62748792       1.75988985       8.68074086        -0.23718653       0.14062284      -0.15535246         0.00000000       0.00000000       0.00000000         6.94000000          3
Li         1.84877463       4.78583779       1.56624727        -0.34813092       0.39602932      -0.15958681         0.00000000       0.00000000       0.00000000         6.94000000          3
Li         1.99453086       5.48253368       5.51655169        -0.12026229      -0.00280988      -0.04964198         0.00000000       0.00000000       0.00000000         6.94000000          3
Li         1.80242007       5.15547141       8.75143952        -0.22325177       0.01579476      -0.19981242         0.00000000       0.00000000       0.00000000         6.94000000          3
Li         1.69579123       8.33414574       1.66225640         0.08430144       0.18153266       0.16553871         0.00000000       0.00000000       0.00000000         6.94000000          3
Li         1.51233659       8.39372095       4.99175523         0.14749427      -0.02061279       0.18724390         0.00000000       0.00000000       0.00000000         6.94000000          3
Li         1.83721940       8.22812345       8.43049412        -0.09336462      -0.00821796      -0.14781104         0.00000000       0.00000000       0.00000000         6.94000000          3
Li         5.16262660       1.42120039       1.75451317         0.00222569       0.12567177      -0.08548400         0.00000000       0.00000000       0.00000000         6.94000000          3
Li         4.96036901       1.91526858       5.23610099         0.06563070      -0.20495229      -0.05604068         0.00000000       0.00000000       0.00000000         6.94000000          3
Li         5.27059190       1.65800030       8.46724674        -0.39813355      -0.05074566      -0.20173233         0.00000000       0.00000000       0.00000000         6.94000000          3
Li         5.11632345       4.77362462       1.47341480         0.26048715       0.19229889      -0.08052050         0.00000000       0.00000000       0.00000000         6.94000000          3
Li         4.82657922       5.06394455       4.88953670         0.11885933      -0.11434803       0.36679847         0.00000000       0.00000000       0.00000000         6.94000000          3
Li         5.12444501       5.52233958       8.45933079        -0.07656198      -0.24266643      -0.22588448         0.00000000       0.00000000       0.00000000         6.94000000          3
Li         5.16366493       8.50997229       1.80256400        -0.10958672       0.13606645      -0.04927529         0.00000000       0.00000000       0.00000000         6.94000000          3
Li         4.64420402       8.13352273       5.85893183        -0.31774170       0.06149740      -0.16124933         0.00000000       0.00000000       0.00000000         6.94000000          3
Li         6.74955814      10.08936826       6.78609486        -0.19646512       0.08081443       0.01144994         0.00000000       0.00000000       0.00000000         6.94000000          3
Li         8.33862801       1.25364960       1.92824251        -0.02510379       0.25339063      -0.14073842         0.00000000       0.00000000       0.00000000         6.94000000          3
Li         8.28405938       1.62801222       5.20016053         0.22375684       0.06946729      -0.06892274         0.00000000       0.00000000       0.00000000         6.94000000          3
Li         8.50746386       1.66954524       8.35675245         0.14815950      -0.14281572      -0.11747492         0.00000000       0.00000000       0.00000000         6.94000000          3
Li         8.62019929       5.19614087       1.95217540        -0.30111649      -0.20592976      -0.26413892         0.00000000       0.00000000       0.00000000         6.94000000          3
Li         8.69357086       5.28487145       5.20049978        -0.08707588      -0.24277602      -0.14565430         0.00000000       0.00000000       0.00000000         6.94000000          3
Li         8.66762301       5.34710930       8.78083133        -0.24567367      -0.09644618       0.00112764         0.00000000       0.00000000       0.00000000         6.94000000          3
Li         8.46597196       8.50835826       1.61530558        -0.05032316       0.00218855       0.30853693         0.00000000       0.00000000       0.00000000         6.94000000          3
Li         8.56632972       8.54182113       5.05727254         0.29812804       0.00635356      -0.13365026         0.00000000       0.00000000       0.00000000         6.94000000          3
Li         8.27073591       8.53951831       8.40749675         0.05723371      -0.16818478       0.07146793         0.00000000       0.00000000       0.00000000         6.94000000          3
53
pbc=[T, T, T] energy=-98.27276555 Lattice="10.28045100 0.00000000 0.00000000 0.00000000 10.28045100 0.00000000 0.00000000 0.00000000 10.28045100" Properties=species:S:1:pos:R:3:force:R:3:momenta:R:3:masses:R:1:Z:I:1
Li        10.13583590       0.09809606      10.20591773        -0.08595574      -0.03469239       0.37145696         0.00000000       0.00000000       0.00000000         6.94000000          3
Li         9.98965816       0.10636155       3.19720998        -0.07026405       0.01947766      -0.10172229         0.00000000       0.00000000       0.00000000         6.94000000          3
Li        10.08498879       9.88104520       7.05720064        -0.09009574       0.38182452      -0.44425530         0.00000000       0.00000000       0.00000000         6.94000000          3
Li        10.12961622       3.19557539       0.31299861        -0.09948953      -0.30161200      -0.04794393         0.00000000       0.00000000       0.00000000         6.94000000          3
Li         0.03118061       3.32662030       3.24613465        -0.10385269      -0.00387411       0.01892954         0.00000000       0.00000000       0.00000000         6.94000000          3
Li         0.23938030       3.44778569       6.33400175         0.25813244      -0.11876340       0.29072722         0.00000000       0.00000000       0.00000000         6.94000000          3
Li         0.09193807       7.18141933       0.25502715        -0.06667681      -0.20003344       0.02579174         0.00000000       0.00000000       0.00000000         6.94000000          3
Li         0.28022453       6.64260033       3.44761093        -0.14963149      -0.15084223       0.05600468         0.00000000       0.00000000       0.00000000         6.94000000          3
Li         9.92177635       6.97626265       7.28983696         0.21208078      -0.10651864      -0.33724922         0.00000000       0.00000000       0.00000000         6.94000000          3
Li         2.96371010       9.93053529       0.10552883         0.38093299       0.24742397      -0.27983085         0.00000000       0.00000000       0.00000000         6.94000000          3
Li         3.93763890      10.20991683       3.82659975        -0.33531850       0.01569157      -0.09232207         0.00000000       0.00000000       0.00000000         6.94000000          3
Li         3.12588421      10.00406107       6.85830475         0.14741971       0.47658826       0.25134409         0.00000000       0.00000000       0.00000000         6.94000000          3
Li         3.58622225       3.19076414      10.10714316        -0.17284183       0.06905194      -0.09535302         0.00000000       0.00000000       0.00000000         6.94000000          3
Li         3.07540720       3.71942605       3.62167952         0.10730077      -0.11330847       0.14843609         0.00000000       0.00000000       0.00000000         6.94000000          3
Li         3.35718408       3.13064406       6.83043445        -0.08861923      -0.00446126      -0.03694900         0.00000000       0.00000000       0.00000000         6.94000000          3
Li         3.33519419       6.67294822      10.08001305        -0.14542282       0.15250616       0.04430037         0.00000000       0.00000000       0.00000000         6.94000000          3
Li         3.34028302       6.60449070       3.32618852         0.08947757       0.06480161       0.06180717         0.00000000       0.00000000       0.00000000         6.94000000          3
Li         4.86136827       8.36347586       8.41005659         0.09513602       0.00431358       0.09347502         0.00000000       0.00000000       0.00000000         6.94000000          3
Li         6.67466506       0.01042438      10.15428931        -0.25826551      -0.20919451       0.06947844         0.00000000       0.00000000       0.00000000         6.94000000          3
Li         6.65699296      10.25485268       3.26770303        -0.00972614      -0.23076178       0.31887716         0.00000000       0.00000000       0.00000000         6.94000000          3
Li         6.67750246       3.37177204      10.06607276         0.11440030       0.02623646      -0.12500268         0.00000000       0.00000000       0.00000000         6.94000000          3
Li         6.60617669       3.73743740       3.20744931         0.02719418      -0.21992160       0.27011300         0.00000000       0.00000000       0.00000000         6.94000000          3
Li         6.96075973       3.44698382       6.95876532         0.13304936       0.06384934      -0.09570384         0.00000000       0.00000000       0.00000000         6.94000000          3
Li         6.74830393       6.74655625       9.96181870         0.06816532      -0.04849325       0.11966424         0.00000000       0.00000000       0.00000000         6.94000000          3
Li         6.69652129       6.84767477       3.48864021        -0.14537905      -0.13189706       0.02466047         0.00000000       0.00000000       0.00000000         6.94000000          3
Li         7.13277223       6.74764598       6.66330516        -0.05502593       0.07755359       0.29615265         0.00000000       0.00000000       0.00000000         6.94000000          3
Li         1.96583812       1.53647508       1.93295096        -0.03780667       0.13579900      -0.07904406         0.00000000       0.00000000       0.00000000         6.94000000          3
Li         1.51496838       1.21041002       4.96588961         0.09121631       0.15282187       0.10333654         0.00000000       0.00000000       0.00000000         6.94000000          3
Li         1.50749449       1.68986969       8.59914492         0.00998353      -0.03923001      -0.09946639         0.00000000       0.00000000       0.00000000         6.94000000          3
Li         1.68260142       4.95377924       1.35821206         0.09379840       0.06275458       0.21225928         0.00000000       0.00000000       0.00000000         6.94000000          3
Li         2.57172678       6.06262869       6.24132348        -0.12067254       0.02311459       0.15944334         0.00000000       0.00000000       0.00000000         6.94000000          3
Li         1.46372033       4.82886148       8.88801531         0.12427793       0.06167103      -0.34935543         0.00000000       0.00000000       0.00000000         6.94000000          3
Li         1.67863316       8.84772623       2.14430675         0.06655509      -0.23731667       0.03226632         0.00000000       0.00000000       0.00000000         6.94000000          3
Li         1.70678104       8.59410750       5.15733217        -0.24624041      -0.14538975      -0.15940051         0.00000000       0.00000000       0.00000000         6.94000000          3
Li         1.41228724       8.57972515       8.54999409         0.35754473      -0.26363818       0.09679391         0.00000000       0.00000000       0.00000000         6.94000000          3
Li         4.98891782       1.72415500       1.66512465        -0.13640570      -0.03941810       0.11658277         0.00000000       0.00000000       0.00000000         6.94000000          3
Li         5.34883641       1.97836999       5.13702828        -0.06648748      -0.14836759       0.03001781         0.00000000       0.00000000       0.00000000         6.94000000          3
Li         5.25104876       1.51240855       8.34431310        -0.20766745      -0.11542505      -0.06443551         0.00000000       0.00000000       0.00000000         6.94000000          3
Li         5.12452725       5.11037107       1.33407357        -0.18118047       0.04577291       0.16525325         0.00000000       0.00000000       0.00000000         6.94000000          3
Li         5.23320190       5.02171246       5.47295230        -0.06990435       0.13478181      -0.37159202         0.00000000       0.00000000       0.00000000         6.94000000          3
Li         5.04266402       5.13519836       8.22445332        -0.14358747       0.00999757       0.15572696         0.00000000       0.00000000       0.00000000         6.94000000          3
Li         4.81993805       8.40857620       1.73717005         0.24673597       0.05496696      -0.20999307         0.00000000       0.00000000       0.00000000         6.94000000          3
Li         4.84990556       8.28278460       5.62184407         0.08519383      -0.30729574      -0.34036563         0.00000000       0.00000000       0.00000000         6.94000000          3
Li         6.87708714      10.02423132       6.65817521        -0.07691044      -0.02128353      -0.03630930         0.00000000       0.00000000       0.00000000         6.94000000          3
Li         7.84601964       1.61381492       1.61506913         0.52575321       0.27072625       0.04198032         0.00000000       0.00000000       0.00000000         6.94000000          3
Li         8.50218999       1.64829555       4.94888575        -0.09428398       0.11586188       0.08316974         0.00000000       0.00000000       0.00000000         6.94000000          3
Li         8.44754939       1.57808007       8.26696299         0.18183191       0.12477978       0.15145613         0.00000000       0.00000000       0.00000000         6.94000000          3
Li         8.32585969       5.01481428       1.61814299         0.27729689       0.31703463      -0.06765642         0.00000000       0.00000000       0.00000000         6.94000000          3
Li         8.80344832       4.98461031       5.20432411        -0.32357434       0.20460846      -0.24657336         0.00000000       0.00000000       0.00000000         6.94000000          3
Li         8.95296720       4.87877307       8.57713448        -0.27733070      -0.03940975       0.15466041         0.00000000       0.00000000       0.00000000         6.94000000          3
Li         8.35733843       8.50661058       1.88213469         0.01630184      -0.05646654      -0.28457415         0.00000000       0.00000000       0.00000000         6.94000000          3
Li         8.55692311       8.47136920       4.83266525         0.20569312       0.04472933       0.14157110         0.00000000       0.00000000       0.00000000         6.94000000          3
Li         8.38510593       8.66926788       8.88166200        -0.05685513      -0.07112427      -0.14063869         0.00000000       0.00000000       0.00000000         6.94000000          3
53
pbc=[T, T, T] energy=-98.15486472 Lattice="10.28045100 0.00000000 0.00000000 0.00000000 10.28045100 0.00000000 0.00000000 0.00000000 10.28045100" Properties=species:S:1:pos:R:3:force:R:3:momenta:R:3:masses:R:1:Z:I:1
Li        10.25052461       0.03941525      10.14784346         0.07192432      -0.16218966      -0.08728831         0.00000000       0.00000000       0.00000000         6.94000000          3
Li        10.27321356       0.08866889       3.69713803         0.09987250      -0.18557038      -0.39586773         0.00000000       0.00000000       0.00000000         6.94000000          3
Li         0.16560779       9.73348988       7.00818345        -0.02887968       0.31933058       0.09821890         0.00000000       0.00000000       0.00000000         6.94000000          3
Li        10.15066031       3.49089162      10.15917252        -0.06952080      -0.18259570       0.09903985         0.00000000       0.00000000       0.00000000         6.94000000          3
Li        10.25770036       3.68357812       3.53346297        -0.13229398      -0.36972557       0.04776604         0.00000000       0.00000000       0.00000000         6.94000000          3
Li         0.25817297       3.34144471       6.78976498        -0.48580871       0.12055164       0.00776370         0.00000000       0.00000000       0.00000000         6.94000000          3
Li        10.18281756       6.67553889       9.97118419         0.03713980       0.28363727       0.29774039         0.00000000       0.00000000       0.00000000         6.94000000          3
Li        10.20811775       6.69190537       3.65633492        -0.08814847       0.00906615      -0.13663736         0.00000000       0.00000000       0.00000000         6.94000000          3
Li        10.01697332       6.55022020       6.76473209         0.26437730       0.15437151      -0.02401055         0.00000000       0.00000000       0.00000000         6.94000000          3
Li         2.97594383      10.21934400      10.20191863         0.00786101      -0.17336965       0.21336624         0.00000000       0.00000000       0.00000000         6.94000000          3
Li         3.27304887       0.31533227       3.47927471         0.08212844      -0.39595796       0.00021905         0.00000000       0.00000000       0.00000000         6.94000000          3
Li         3.32003053      10.17684461       6.83279895         0.06679651       0.15027358      -0.04143815         0.00000000       0.00000000       0.00000000         6.94000000          3
Li         3.51110299       3.62383842      10.15856597         0.03167912      -0.08288503       0.03050450         0.00000000       0.00000000       0.00000000         6.94000000          3
Li         3.24984589       3.15271619       3.09227742         0.20790270       0.19722042       0.29277067         0.00000000       0.00000000       0.00000000         6.94000000          3
Li         3.56366694       3.51857688       6.49758429        -0.32410822      -0.31151191       0.35563223         0.00000000       0.00000000       0.00000000         6.94000000          3
Li         3.19541090       6.90253125       0.33182212         0.07827848      -0.28496286      -0.10119290         0.00000000       0.00000000       0.00000000         6.94000000          3
Li         3.39441987       6.74990768       3.23784860         0.07284696       0.07023039      -0.08944870         0.00000000       0.00000000       0.00000000         6.94000000          3
Li         5.04786593       8.24342076       8.82371109         0.09796711       0.49003494      -0.02850193         0.00000000       0.00000000       0.00000000         6.94000000          3
Li         7.25173761      10.17497357       0.18437989        -0.19393310      -0.24608751      -0.00114659         0.00000000       0.00000000       0.00000000         6.94000000          3
Li         6.98024118      10.11518247       3.64121238        -0.25385934       0.22478786      -0.14068922         0.00000000       0.00000000       0.00000000         6.94000000          3
Li         6.75149087       3.44638755       0.06360515         0.07252713       0.02169958      -0.24754652         0.00000000       0.00000000       0.00000000         6.94000000          3
Li         6.92825294       3.31661742       3.14125349        -0.06493634      -0.05016569       0.39749620         0.00000000       0.00000000       0.00000000         6.94000000          3
Li         6.67738937       3.32405018       6.86269450        -0.09345338       0.08468090       0.17636617         0.00000000       0.00000000       0.00000000         6.94000000          3
Li         6.51792930       6.70489986       0.40849372         0.11182128       0.03324299      -0.23733887         0.00000000       0.00000000       0.00000000         6.94000000          3
Li         6.72288037       7.05863990       3.51846379        -0.04333546      -0.17046532      -0.02365051         0.00000000       0.00000000       0.00000000         6.94000000          3
Li         6.81464368       6.93986985       6.93583991        -0.11771698      -0.07766858      -0.19633396         0.00000000       0.00000000       0.00000000         6.94000000          3
Li         1.59469328       1.73710837       1.67006955        -0.23568607       0.01481935      -0.16017783         0.00000000       0.00000000       0.00000000         6.94000000          3
Li         1.50361876       1.63700761       5.23872250         0.34706544       0.02558091      -0.01059520         0.00000000       0.00000000       0.00000000         6.94000000          3
Li         1.97578960       1.92209480       8.57544848        -0.16411818      -0.09990681      -0.14854119         0.00000000       0.00000000       0.00000000         6.94000000          3
Li         1.54744433       5.09035503       1.70077725        -0.03049972       0.05216731      -0.11229359         0.00000000       0.00000000       0.00000000         6.94000000          3
Li         1.89280580       5.11639541       4.86565521         0.05530512      -0.01048755       0.32672649         0.00000000       0.00000000       0.00000000         6.94000000          3
Li         1.47322975       4.98725239       8.41760244         0.35043207       0.20786373       0.04388297         0.00000000       0.00000000       0.00000000         6.94000000          3
Li         1.53700967       8.51720973       1.85036810        -0.19473924       0.10335231       0.04653447         0.00000000       0.00000000       0.00000000         6.94000000          3
Li         1.72448397       8.26006481       4.95854937         0.10727931       0.16345013       0.21418854         0.00000000       0.00000000       0.00000000         6.94000000          3
Li         2.13705903       8.15601636       8.39750416        -0.19430622      -0.17044505      -0.11450697         0.00000000       0.00000000       0.00000000         6.94000000          3
Li         5.37220388       1.50767954       1.47419611        -0.31277276       0.02598556       0.25855118         0.00000000       0.00000000       0.00000000         6.94000000          3
Li         5.08898773       1.80251260       5.18833801         0.14209006      -0.23107205      -0.27465988         0.00000000       0.00000000       0.00000000         6.94000000          3
Li         5.06362586       0.96923064       8.94389985         0.17547780       0.34649596      -0.32933430         0.00000000       0.00000000       0.00000000         6.94000000          3
Li         5.04129672       4.92629960       1.89793574        -0.03317291       0.11571022       0.02485093         0.00000000       0.00000000       0.00000000         6.94000000          3
Li         5.03599201       5.06035668       4.92058366         0.20933223       0.14866319      -0.05019212         0.00000000       0.00000000       0.00000000         6.94000000          3
Li         4.42053225       5.66140324       8.12338621         0.11080386      -0.10539499      -0.04193496         0.00000000       0.00000000       0.00000000         6.94000000          3
Li         4.80464074       8.79000149       1.66153677         0.20097295       0.05659114       0.13334806         0.00000000       0.00000000       0.00000000         6.94000000          3
Li         4.88115813       8.42098471       5.16178361        -0.03545866       0.02623519       0.13980244         0.00000000       0.00000000       0.00000000         6.94000000          3
Li         6.85267106      10.26004430       6.77879574        -0.23714241      -0.30745439      -0.03325615         0.00000000       0.00000000       0.00000000         6.94000000          3
Li         8.61599458       1.68437993       1.73559714         0.19725359       0.03090212       0.05724846         0.00000000       0.00000000       0.00000000         6.94000000          3
Li         8.76503028       1.52028337       5.30928752        -0.25499741       0.30573488       0.03534270         0.00000000       0.00000000       0.00000000         6.94000000          3