63
pbc=[T, T, T] energy=-297.62773938 Lattice="15.47982800 -3.50086400 24.62958500 0.00000000 9.02432700 0.14751800 0.00000000 0.00000000 8.73850700" Properties=species:S:1:pos:R:3:force:R:3:momenta:R:3:masses:R:1:Z:I:1
Si         7.51440387       7.32051879      15.51905539        -0.05394626       0.05113266       0.18121306         0.00000000       0.00000000       0.00000000        28.08500000         14
Si         3.85981771       2.53088175      13.08244640         0.26663997      -0.92416590      -0.08352670         0.00000000       0.00000000       0.00000000        28.08500000         14
Si         3.34012893       5.51644314       5.58748145         0.23866608      -0.69685287       0.77237856         0.00000000       0.00000000       0.00000000        28.08500000         14
Si        14.04806775      -1.74098483      25.75698006        -0.19753153      -0.54550102      -0.58922535         0.00000000       0.00000000       0.00000000        28.08500000         14
Si         3.45977252       4.34863784      10.06570708         0.71004351      -0.17593828       1.74604200         0.00000000       0.00000000       0.00000000        28.08500000         14
Si         7.47867642       6.42782656      13.13612433         1.48931317      -1.35072751       0.18344374         0.00000000       0.00000000       0.00000000        28.08500000         14
Si         3.46989633       7.86421142       5.92066623         0.15460176      -0.55740691       0.51283785         0.00000000       0.00000000       0.00000000        28.08500000         14
Si        10.40221222       2.53930689      24.39975156         0.43579932       0.13034153       0.40776587         0.00000000       0.00000000       0.00000000        28.08500000         14
Si         3.43847227       1.68704615       7.90731163        -1.10117919      -2.95652893      -0.22550489         0.00000000       0.00000000       0.00000000        28.08500000         14
Si        13.50684652       3.40571896      25.35386481        -1.88521220       4.35041801       0.16140586         0.00000000       0.00000000       0.00000000        28.08500000         14
Si         0.29323438       4.31302659       4.02319373         0.82926870      -0.49988560      -0.38254248         0.00000000       0.00000000       0.00000000        28.08500000         14
Si        11.66179034       0.02144757      22.18272527        -0.32394867      -0.37760607       0.31498741         0.00000000       0.00000000       0.00000000        28.08500000         14
Si         3.23311688      -0.57247962       9.94381159        -0.00533472       0.36146847      -0.48868945         0.00000000       0.00000000       0.00000000        28.08500000         14
Si         1.12742683       3.90579933       7.93318551        -0.55288358      -0.75604243       0.29790019         0.00000000       0.00000000       0.00000000        28.08500000         14
Si         3.30313214       1.85629494      10.62986426        -0.17706013       0.27701120       0.57497243         0.00000000       0.00000000       0.00000000        28.08500000         14
Si         2.23550388       0.77398555       5.83004500        -0.62776659       0.67883488       0.16469399         0.00000000       0.00000000       0.00000000        28.08500000         14
Si        12.14852257       3.98204527      23.39042436        -2.12933218       0.82684836       0.76031369         0.00000000       0.00000000       0.00000000        28.08500000         14
Si         6.37696158       7.16071755      17.85763221        -0.47996284       0.33704644      -0.25962521         0.00000000       0.00000000       0.00000000        28.08500000         14
Si         9.63983069       5.37281799      20.87235074        -0.62227269       0.46382107       1.18493869         0.00000000       0.00000000       0.00000000        28.08500000         14
Si        15.23439533       5.15179366      31.04556962        -0.27144543      -0.45482704      -0.86173239         0.00000000       0.00000000       0.00000000        28.08500000         14
Si        13.92085452       2.83622656      22.87976563         2.17465012      -1.42181945      -1.10461822         0.00000000       0.00000000       0.00000000        28.08500000         14
Si         5.73522983       2.90845726      15.38535815         0.28691295      -0.99594282      -0.92959672         0.00000000       0.00000000       0.00000000        28.08500000         14
Si         5.90865035       4.78817900      10.93808254        -0.24280024      -0.01873090      -0.13757220         0.00000000       0.00000000       0.00000000        28.08500000         14
Si        12.76533180       5.25516385      27.60363372        -0.49166967       0.19533440      -0.63235940         0.00000000       0.00000000       0.00000000        28.08500000         14
Si         1.78685203       5.77640967       9.29565875        -1.36242298       0.76125831       1.00118023         0.00000000       0.00000000       0.00000000        28.08500000         14
Si        11.55804454       0.73156237      26.27768421        -0.03095415       0.06370323      -0.49871651         0.00000000       0.00000000       0.00000000        28.08500000         14
Si         9.18737080       2.62054255      21.87178036         0.01185723      -0.21226335       2.35857842         0.00000000       0.00000000       0.00000000        28.08500000         14
Si         9.12859389      -0.97272793      22.40803184         1.12128837      -0.42725452      -0.11249025         0.00000000       0.00000000       0.00000000        28.08500000         14
Si         7.25486907       0.53403664      18.23036845         0.26639552      -0.26194663      -0.25197461         0.00000000       0.00000000       0.00000000        28.08500000         14
Si        11.64470061      -1.30583888      24.51188904         0.57583918       0.99348124       0.46790639         0.00000000       0.00000000       0.00000000        28.08500000         14
Si        13.51715609       3.81334451      29.35971016        -0.19699020      -0.12355300      -0.28807995         0.00000000       0.00000000       0.00000000        28.08500000         14
Si         1.04866547       0.19235031       8.12119030         1.12854892       0.87692135      -0.39222149         0.00000000       0.00000000       0.00000000        28.08500000         14
Si        13.32489662       1.79821381      27.58688676        -0.52386377       0.69282278       1.43893244         0.00000000       0.00000000       0.00000000        28.08500000         14
Si        15.00227531      -1.51148870      31.87088258        -0.45839551       0.13527826       0.59607732         0.00000000       0.00000000       0.00000000        28.08500000         14
Si         8.09673952       2.15340776      15.91775932        -0.79258979      -0.45332927      -0.00231756         0.00000000       0.00000000       0.00000000        28.08500000         14
Si        12.88500635      -1.28077840      27.90461475        -0.62254279       0.18043054       0.67577350         0.00000000       0.00000000       0.00000000        28.08500000         14
Si        10.70314007       3.28007345      18.05507900         1.15073016      -0.57311036      -0.66690373         0.00000000       0.00000000       0.00000000        28.08500000         14
Si         4.20879496       5.89619194      12.27281929         0.30350150       0.29631950      -1.43274110         0.00000000       0.00000000       0.00000000        28.08500000         14
Si        10.06747642       5.55773432      18.55749438         0.46709461       0.65354460      -0.35774842         0.00000000       0.00000000       0.00000000        28.08500000         14
Si         3.51376616       6.52367101       8.00996056         1.38529050       0.95376063      -0.19322708         0.00000000       0.00000000       0.00000000        28.08500000         14
Si        13.00430939      -2.68433040      21.80811832         0.40822086       0.36088213      -0.46512176         0.00000000       0.00000000       0.00000000        28.08500000         14
Si         0.58462666       2.97106844       1.67656035         0.26307644       0.68432354       0.12880431         0.00000000       0.00000000       0.00000000        28.08500000         14
Si         8.97104020       4.94521289      16.44653444         0.21809081      -0.09670955      -0.45769812         0.00000000       0.00000000       0.00000000        28.08500000         14
Si         5.58199502       0.22553550      16.28052130        -0.12212549       0.07553457       0.16636757         0.00000000       0.00000000       0.00000000        28.08500000         14
Si         9.11529672       3.03865073      19.76326297        -0.61167941       2.20166646      -1.29093311         0.00000000       0.00000000       0.00000000        28.08500000         14
Si         3.94974003       3.83373718       7.88963202        -0.17114795       2.35773334      -1.41340528         0.00000000       0.00000000       0.00000000        28.08500000         14
Si         7.41290263       3.05024063      18.18407172         1.24954389       0.89099157      -0.26499794         0.00000000       0.00000000       0.00000000        28.08500000         14
Si         5.29910116       2.46820291       9.30706396        -1.31030583      -1.12813211       1.33264235         0.00000000       0.00000000       0.00000000        28.08500000         14
Si        15.43953401       4.70760787      25.85150406        -0.39405969      -0.20549079       1.57848762         0.00000000       0.00000000       0.00000000        28.08500000         14
Si         2.05788833       3.38040233       5.70187690        -0.70240006       0.53356229      -0.69410019         0.00000000       0.00000000       0.00000000        28.08500000         14
Si         6.03708648       5.00267184      14.37330123        -0.60036143       0.64263751      -0.39214924         0.00000000       0.00000000       0.00000000        28.08500000         14
Si        10.22221278      -1.15329500      20.00025079         1.07585357      -1.14777978       1.27643981         0.00000000       0.00000000       0.00000000        28.08500000         14
Si         9.61930444       0.92542572      19.35294675         0.32230807      -0.41552064      -0.32754502         0.00000000       0.00000000       0.00000000        28.08500000         14
Si         5.39665504      -0.18110283      13.65631155         0.47359996       0.36844819      -0.46740177         0.00000000       0.00000000       0.00000000        28.08500000         14
Si         6.44892730       4.98378352      16.82315395         0.40799375       0.41323112       0.17186765         0.00000000       0.00000000       0.00000000        28.08500000         14
Si        10.84027587       6.03872243      23.17868136        -0.38496651      -0.57448360      -0.16258288         0.00000000       0.00000000       0.00000000        28.08500000         14
Si        11.51070722       2.28063602      21.10087680        -0.04997182       0.07399603       0.27168398         0.00000000       0.00000000       0.00000000        28.08500000         14
Si         7.56590525       0.70334380      13.84325046         0.30408102       1.11004603       0.59680592         0.00000000       0.00000000       0.00000000        28.08500000         14
Si        13.64090183       0.57186795      29.68624074         0.35851340      -0.58396763      -0.00810764         0.00000000       0.00000000       0.00000000        28.08500000         14
Si         6.32468620       7.47295079      11.55432733        -1.95112453       0.81572870      -0.80220264         0.00000000       0.00000000       0.00000000        28.08500000         14
Si         9.54531086      -0.78189270      17.70014913        -0.33416173      -1.00648846      -1.40710782         0.00000000       0.00000000       0.00000000        28.08500000         14
Si         1.75392643       7.26853829      11.56541035        -0.47973395      -0.42279757      -0.63494031         0.00000000       0.00000000       0.00000000        28.08500000         14
Si        14.28052833       1.51222513      25.55463608         2.18442019      -4.44375595      -0.64473347         0.00000000       0.00000000       0.00000000        28.08500000         14
63
pbc=[T, T, T] energy=-295.77170067 Lattice="14.46318700 -4.85264900 2.87351600 0.00000000 8.90340700 0.04210200 0.00000000 0.00000000 9.20708400" Properties=species:S:1:pos:R:3:force:R:3:momenta:R:3:masses:R:1:Z:I:1
Si         5.77494808       5.66328826       6.95771348         3.30282396      -1.05803218       0.22431344         0.00000000       0.00000000       0.00000000        28.08500000         14
Si         4.51829962       0.52031286       9.52609442         0.30581845       1.04998534      -0.22524413         0.00000000       0.00000000       0.00000000        28.08500000         14
Si         2.92938836       4.10039739       6.86980565        -1.38433582      -0.76899341      -0.10446123         0.00000000       0.00000000       0.00000000        28.08500000         14
Si         1.75296719       1.25391072       4.05698214        -0.52495832       0.65179314       2.98083807         0.00000000       0.00000000       0.00000000        28.08500000         14
Si        10.67208196       2.58757696       4.23030382        -0.86058487      -2.12842932      -1.87612446         0.00000000       0.00000000       0.00000000        28.08500000         14
Si        14.24626812      -1.65195964       8.07051570         0.98135754       1.47601538      -1.27362150         0.00000000       0.00000000       0.00000000        28.08500000         14
Si        11.96689878      -3.23036380       6.92699097         1.41472456      -1.53206051       0.45050615         0.00000000       0.00000000       0.00000000        28.08500000         14
Si        12.39548640      -0.27405836      11.32844321        -1.72075938      -1.32671747       2.40940462         0.00000000       0.00000000       0.00000000        28.08500000         14
Si         8.73064498       5.11743902       5.71567239         0.08088041      -0.91209780      -1.33117284         0.00000000       0.00000000       0.00000000        28.08500000         14
Si        13.02453379      -1.21314621       5.94021070         1.63538361      -1.64773396      -1.69176300         0.00000000       0.00000000       0.00000000        28.08500000         14
Si         5.99730512      -1.49430606       4.32596411         1.52515101       0.78994821      -1.44347594         0.00000000       0.00000000       0.00000000        28.08500000         14
Si         8.25486398       4.24190824       3.24981782         1.04214438      -0.20446037       0.29614193         0.00000000       0.00000000       0.00000000        28.08500000         14
Si         3.42469466       2.85214691       1.29604299        -0.31226588      -0.00358206      -0.26526239         0.00000000       0.00000000       0.00000000        28.08500000         14
Si         3.45644136       2.82004704       4.51371666         0.37243892       0.29286906      -0.78341505         0.00000000       0.00000000       0.00000000        28.08500000         14
Si        12.67970248       2.31401569       8.90716660        -0.00722158       1.53056013       0.27589942         0.00000000       0.00000000       0.00000000        28.08500000         14
Si        11.90904603       0.23527073       7.06645606        -2.34155950       2.00939630       1.35716715         0.00000000       0.00000000       0.00000000        28.08500000         14
Si         8.73450665       1.02493881       3.15978670         0.04804064       0.66009895       0.33955211         0.00000000       0.00000000       0.00000000        28.08500000         14
Si         1.80058000       7.85824215       5.25041922        -0.58732813       0.03357297       0.43953079         0.00000000       0.00000000       0.00000000        28.08500000         14
Si         0.79938035       2.77768524       0.39319814         0.33581643      -0.67758173       0.04897350         0.00000000       0.00000000       0.00000000        28.08500000         14
Si         9.78924903      -0.97818587       2.20644874         0.31955783      -0.07467034       0.29458979         0.00000000       0.00000000       0.00000000        28.08500000         14
Si        10.38462612       4.72829903       9.78335382        -0.02967279      -0.06777094      -0.05625752         0.00000000       0.00000000       0.00000000        28.08500000         14
Si        12.30786841      -2.82509985       2.46133996         0.23176136       0.75478735      -0.11440299         0.00000000       0.00000000       0.00000000        28.08500000         14
Si         4.69109131       4.75206208       4.62780455        -0.38562961       0.10410955       1.03110715         0.00000000       0.00000000       0.00000000        28.08500000         14
Si         3.71601217       6.32348690       6.83463216        -1.90723004       0.46636140       2.35693199         0.00000000       0.00000000       0.00000000        28.08500000         14
Si         5.06967970       3.26516837       7.02943612         1.36210059      -0.55067734       0.19608091         0.00000000       0.00000000       0.00000000        28.08500000         14
Si         0.97588908       5.54149348       3.86736013        -2.03901712       1.12012351       0.47974786         0.00000000       0.00000000       0.00000000        28.08500000         14
Si         7.22094859       4.62757905       8.93819600        -0.90494870       2.08792076      -0.79596823         0.00000000       0.00000000       0.00000000        28.08500000         14
Si        13.74860432      -4.16043193       4.17623128         0.57247726       0.39402389       0.13006711         0.00000000       0.00000000       0.00000000        28.08500000         14
Si         6.42103311      -0.34279127       1.90662767        -0.34046706       0.76246702       0.62869876         0.00000000       0.00000000       0.00000000        28.08500000         14
Si        12.68615307       1.09887795       4.39869892        -1.15011150      -0.15094266      -0.49227888         0.00000000       0.00000000       0.00000000        28.08500000         14
Si         6.34482658       1.22931694       8.01125449        -0.66402108      -0.08005166      -0.51193129         0.00000000       0.00000000       0.00000000        28.08500000         14
Si        10.39302923       3.34533581       6.23513228         2.25947468       1.06701795      -0.21215830         0.00000000       0.00000000       0.00000000        28.08500000         14
Si        13.33541999      -3.16222203       9.39831856        -1.00790626      -1.61676060       0.63383242         0.00000000       0.00000000       0.00000000        28.08500000         14
Si         9.34835323       1.00318527       6.99855779         0.17424747      -0.44377938       0.12418641         0.00000000       0.00000000       0.00000000        28.08500000         14
Si         1.71962954       0.94402142       1.97440152        -0.10614799      -0.86791557      -3.69840491         0.00000000       0.00000000       0.00000000        28.08500000         14
Si         4.73482799       5.18642210       0.99262138         0.77133681      -2.17509786      -0.09991575         0.00000000       0.00000000       0.00000000        28.08500000         14
Si         7.66799124      -2.24647813      10.51086882        -0.10103763      -0.78977045       1.41359264         0.00000000       0.00000000       0.00000000        28.08500000         14
Si         3.83361235       7.06861605       4.80525859        -0.30809915       0.39724857      -2.15248828         0.00000000       0.00000000       0.00000000        28.08500000         14
Si         2.80273423       1.54106722       6.35937099        -2.23978839       0.12032544       1.44020699         0.00000000       0.00000000       0.00000000        28.08500000         14
Si         2.74505504       4.74428683       2.85776579         1.69903873      -0.72398353      -0.82380716         0.00000000       0.00000000       0.00000000        28.08500000         14
Si         8.95333467       0.00113296       9.33761053        -0.05824689       1.48955730       0.00323360         0.00000000       0.00000000       0.00000000        28.08500000         14
Si         7.73148463      -1.69134798       5.97474263        -0.75274341       0.09681308       0.91762114         0.00000000       0.00000000       0.00000000        28.08500000         14
Si         4.19481598       7.29731208       1.18391032        -0.43683588       1.44739015       0.67723239         0.00000000       0.00000000       0.00000000        28.08500000         14
Si        14.14504028       2.52211502      11.43154313        -0.36759498       0.74838039      -0.42154414         0.00000000       0.00000000       0.00000000        28.08500000         14
Si        10.91766688      -2.83813840       4.61462690        -0.07113633      -0.28215969      -0.51440510         0.00000000       0.00000000       0.00000000        28.08500000         14
Si        10.18144727      -1.88008012       6.67024142        -0.57431001       1.48240336      -0.06782295         0.00000000       0.00000000       0.00000000        28.08500000         14
Si         8.83770149      -2.14041655       8.56740066         0.44675679      -1.32156815      -0.86710747         0.00000000       0.00000000       0.00000000        28.08500000         14
Si         2.38962222       6.66161043       8.80916661        -0.02438271       0.05896390      -2.08317320         0.00000000       0.00000000       0.00000000        28.08500000         14
Si         6.22534619       1.06118069       4.79603774         1.80162820       0.95409888      -1.94744430         0.00000000       0.00000000       0.00000000        28.08500000         14
Si        14.28369885      -4.77324078       7.75389396        -1.73039382      -0.21384743       0.00996128         0.00000000       0.00000000       0.00000000        28.08500000         14
Si         4.60230181       0.30927941       6.05197396         0.24376558      -1.45311241       1.28968118         0.00000000       0.00000000       0.00000000        28.08500000         14
Si        12.04197718       3.75184586       2.85839066         0.14138761      -0.34641124      -1.15581712         0.00000000       0.00000000       0.00000000        28.08500000         14
Si         9.15341840       3.42459103       7.93461973        -1.42970976       0.29971967       2.67900119         0.00000000       0.00000000       0.00000000        28.08500000         14
Si        12.78999875       0.09422341       9.26682279         0.94947938      -0.66921792      -2.03473348         0.00000000       0.00000000       0.00000000        28.08500000         14
Si         6.16606159       5.14514757       2.95203389         0.43838707       0.36672039      -0.74833940         0.00000000       0.00000000       0.00000000        28.08500000         14
Si         1.44449634       0.31859411       8.58732812        -0.02229928      -0.12674955      -0.02193968         0.00000000       0.00000000       0.00000000        28.08500000         14
Si         1.80637974       7.10442132       1.66940666        -0.39002982       0.75547883       2.10585499         0.00000000       0.00000000       0.00000000        28.08500000         14
Si        10.02382746       2.13879999      10.44911121        -0.32957526       0.33514869      -0.41821954         0.00000000       0.00000000       0.00000000        28.08500000         14
Si         5.63492997       2.38986577       2.24646903         0.33622067      -0.63605569       0.52240943         0.00000000       0.00000000       0.00000000        28.08500000         14
Si         0.85152013       5.30992242       6.26086039        -0.19245194      -0.19352644       0.18432902         0.00000000       0.00000000       0.00000000        28.08500000         14
Si         7.45491957       2.55719863       9.73512241         0.29927599      -1.54280762       1.13362038         0.00000000       0.00000000       0.00000000        28.08500000         14
Si        13.34149453       2.16752734       6.30142824         0.94004330       0.68798912       1.37530221         0.00000000       0.00000000       0.00000000        28.08500000         14
Si        14.43804998       0.28788677       3.16120438         1.27128167       0.09527663      -0.21691576         0.00000000       0.00000000       0.00000000        28.08500000         14
63
pbc=[T, T, T] energy=-291.28958206 Lattice="15.61678100 7.01355900 13.23323000 0.00000000 9.11214600 0.60501300 0.00000000 0.00000000 9.13206100" Properties=species:S:1:pos:R:3:force:R:3:momenta:R:3:masses:R:1:Z:I:1
Si         6.02314256       2.92964100      13.79655501         0.40295226       0.92358416       0.05267631         0.00000000       0.00000000       0.00000000        28.08500000         14
Si         9.43675225       7.09718312      11.49169101         1.92042467      -1.91998656      -1.78587363         0.00000000       0.00000000       0.00000000        28.08500000         14
Si         8.79588641       9.20065907       8.14054227         3.04582606      -4.39076091      -0.75519977         0.00000000       0.00000000       0.00000000        28.08500000         14
Si         8.36245827       8.69072450      12.39037969        -2.02869537       1.93450428       1.61891389         0.00000000       0.00000000       0.00000000        28.08500000         14
Si        13.85759747      15.05158658      13.11402851        -2.36411288      -3.75930842       0.21272158         0.00000000       0.00000000       0.00000000        28.08500000         14
Si         5.42508232       8.02859579       5.14029412         0.15870301       1.34665812      -0.70975513         0.00000000       0.00000000       0.00000000        28.08500000         14
Si         1.82279068       7.54492631       7.23963560        -0.41169232       1.13822078       0.83103210         0.00000000       0.00000000       0.00000000        28.08500000         14
Si         8.50630444      11.54154727      13.24111656        -0.89072908       0.36656586       1.69141620         0.00000000       0.00000000       0.00000000        28.08500000         14
Si         8.84303347      12.89842900       8.89455085         0.41427739      -0.49266847       0.00544017         0.00000000       0.00000000       0.00000000        28.08500000         14
Si        10.69443410      11.96484132      14.68285295         0.56194209      -3.78864415      -0.90230261         0.00000000       0.00000000       0.00000000        28.08500000         14
Si        15.48961355      14.28724194      14.73580013         0.21276780       0.04556917       0.31142365         0.00000000       0.00000000       0.00000000        28.08500000         14
Si         2.22442305       9.93649993       5.74940899         0.19452142      -0.80371872       1.17966052         0.00000000       0.00000000       0.00000000        28.08500000         14
Si        10.63760463       8.91989095       9.91756485        -0.07678718      -0.56283256       0.14900074         0.00000000       0.00000000       0.00000000        28.08500000         14
Si         0.35053427       9.19076139       3.69831047         0.41209322      -0.11147714       0.45506621         0.00000000       0.00000000       0.00000000        28.08500000         14
Si         2.44785234       7.46609695       9.77455785         0.47546120       0.77879049       0.45587840         0.00000000       0.00000000       0.00000000        28.08500000         14
Si         5.77908351       7.91260192      11.58634045         0.26399634      -0.13606220      -0.00132009         0.00000000       0.00000000       0.00000000        28.08500000         14
Si        11.35959965      13.84724259      11.01327774         0.75736140      -1.03241922      -0.93861512         0.00000000       0.00000000       0.00000000        28.08500000         14
Si         1.40109074       4.84051398       1.74298524         0.57675660      -0.11765838       0.82068543         0.00000000       0.00000000       0.00000000        28.08500000         14
Si         1.99132698       3.62652613       7.97226317        -0.17782940      -0.25744045      -0.11607495         0.00000000       0.00000000       0.00000000        28.08500000         14
Si         7.90051389       6.24720658      14.41862952         0.34137581      -0.37438214       0.26141626         0.00000000       0.00000000       0.00000000        28.08500000         14
Si         1.96577793       6.29811422       5.41202572         0.26086656      -1.01502267      -1.06772688         0.00000000       0.00000000       0.00000000        28.08500000         14
Si         9.82526653       7.65365672      15.19591917        -0.35438955       0.56174754       0.61804713         0.00000000       0.00000000       0.00000000        28.08500000         14
Si        12.23927731      12.47395163      13.06991779         1.09123767       0.05796283      -1.00299947         0.00000000       0.00000000       0.00000000        28.08500000         14
Si         9.46027113      12.52246517      11.33809934        -0.12146365       1.14089203      -0.57263196         0.00000000       0.00000000       0.00000000        28.08500000         14
Si         9.87010231       4.59256604      14.86426765        -3.65757744       1.82264514       0.77364368         0.00000000       0.00000000       0.00000000        28.08500000         14
Si         8.15044485      10.59675437      11.05617191        -0.87081860      -0.48668173      -1.38297826         0.00000000       0.00000000       0.00000000        28.08500000         14