63
pbc=[T, T, T] energy=-295.49753016 Lattice="14.22366000 5.59192100 15.55731400 0.00000000 9.05593500 0.27217900 0.00000000 0.00000000 9.17819400" Properties=species:S:1:pos:R:3:force:R:3:momenta:R:3:masses:R:1:Z:I:1
Si         0.29508405       9.03355219       4.74853937        -2.98187262       0.60691870       3.48143607         0.00000000       0.00000000       0.00000000        28.08500000         14
Si        12.92021802       7.32285539      21.49173593         1.02961593      -0.13696487      -0.28212521         0.00000000       0.00000000       0.00000000        28.08500000         14
Si        10.36532154      11.77339605      17.53380260         1.29123700       2.50367684       0.18027279         0.00000000       0.00000000       0.00000000        28.08500000         14
Si        13.29247965       9.74517190      21.12378488        -0.50029697      -0.68283674      -2.67411757         0.00000000       0.00000000       0.00000000        28.08500000         14
Si         1.32033969       2.61444349       8.65053149        -1.24770628       0.54526764       0.45055166         0.00000000       0.00000000       0.00000000        28.08500000         14
Si         7.47440532       6.40457272      10.06059603         0.25866430      -1.20841700       1.41784669         0.00000000       0.00000000       0.00000000        28.08500000         14
Si         4.46809254       7.99775596      12.86072444         1.01186331      -0.97490254       1.38438155         0.00000000       0.00000000       0.00000000        28.08500000         14
Si         6.31763772       8.20632022       9.44433172        -1.19321410       1.55031482      -0.29724222         0.00000000       0.00000000       0.00000000        28.08500000         14
Si         9.26475162      10.05168473      15.56733088         0.97073269       0.93589369       0.00586275         0.00000000       0.00000000       0.00000000        28.08500000         14
Si         9.14949731      12.36915740      15.49351478        -0.19438338       0.74741519       0.38356837         0.00000000       0.00000000       0.00000000        28.08500000         14
Si        10.84933847       6.82206777      13.26644916         0.80306051      -0.49752069       1.79911729         0.00000000       0.00000000       0.00000000        28.08500000         14
Si        10.99544390       9.81976179      13.36805757        -0.20877409       0.21183732       0.00160493         0.00000000       0.00000000       0.00000000        28.08500000         14
Si         4.30419331       6.44570181       7.70120955         0.11246361       0.11640061       0.02147237         0.00000000       0.00000000       0.00000000        28.08500000         14
Si        14.02905188       7.93655278      18.81937239        -1.01784245      -0.03918630      -0.19704588         0.00000000       0.00000000       0.00000000        28.08500000         14
Si        13.86415699      12.69928158      16.36185628        -0.11236379      -0.00469982      -0.57636790         0.00000000       0.00000000       0.00000000        28.08500000         14
Si        11.67890499      10.20166743      16.46834689         0.98277019      -1.71292947       0.58267823         0.00000000       0.00000000       0.00000000        28.08500000         14
Si        10.62353786       9.79782442      19.90055460        -0.02592928      -0.60446721       0.72929798         0.00000000       0.00000000       0.00000000        28.08500000         14
Si         7.28841674       7.98257611      12.56480779         0.12309702       0.12520565       0.12171308         0.00000000       0.00000000       0.00000000        28.08500000         14
Si        12.71507017       8.10848480      14.90692643         0.06978948      -0.11812041      -0.04318403         0.00000000       0.00000000       0.00000000        28.08500000         14
Si         3.49293263       8.77930776      10.04987650         1.15896022       2.46350168      -0.65856102         0.00000000       0.00000000       0.00000000        28.08500000         14
Si         8.85627656      10.38794076      18.22418968        -0.21523972      -2.27564512      -0.54804569         0.00000000       0.00000000       0.00000000        28.08500000         14
Si         7.80284385      10.65527818      12.87625166         0.55480388      -1.38851051      -0.21510671         0.00000000       0.00000000       0.00000000        28.08500000         14
Si         6.74481690       4.94867385      13.34147782         0.16301783       0.92802634       0.41519423         0.00000000       0.00000000       0.00000000        28.08500000         14
Si         9.71281114       5.42193263      18.43023462         3.40640289       0.75013542       1.37223979         0.00000000       0.00000000       0.00000000        28.08500000         14
Si         7.97492169       4.69788891      17.50839082        -2.46951666      -1.27128002      -1.82875726         0.00000000       0.00000000       0.00000000        28.08500000         14
Si         3.90641443       5.75676578      12.40654721         0.77515538      -0.42418828       0.05829842         0.00000000       0.00000000       0.00000000        28.08500000         14
Si         4.15596854      10.13601497      12.25627729        -0.38288402       0.80084692      -1.65096026         0.00000000       0.00000000       0.00000000        28.08500000         14
Si         2.76842206       8.06108220       5.92014867         0.15547306       1.03537039       0.40436972         0.00000000       0.00000000       0.00000000        28.08500000         14
Si        13.86683104      10.26155146      23.17275106         0.64537139       0.75504105       2.27144577         0.00000000       0.00000000       0.00000000        28.08500000         14
Si        12.73653368       5.24951514      22.94757562         0.81227930      -0.75640986       0.00592284         0.00000000       0.00000000       0.00000000        28.08500000         14
Si         8.86098459       7.50937044      17.60879820         0.43873918       1.09364896       0.07374309         0.00000000       0.00000000       0.00000000        28.08500000         14
Si         2.38788226       5.99300328       5.04124346        -0.72078846      -1.95767078       0.18560572         0.00000000       0.00000000       0.00000000        28.08500000         14
Si         2.98514797       1.27272296       7.37774407        -0.95478533      -1.58579621      -1.21929822         0.00000000       0.00000000       0.00000000        28.08500000         14
Si         7.35192538      10.70338722      10.58997466        -2.27851165       0.52086570       0.65477905         0.00000000       0.00000000       0.00000000        28.08500000         14
Si         5.45047806       4.29721988       8.51863993        -0.18247370       0.15047487      -0.79077671         0.00000000       0.00000000       0.00000000        28.08500000         14
Si        11.94042120      11.78623068      14.87639856         0.55670550       1.03287679      -1.35382302         0.00000000       0.00000000       0.00000000        28.08500000         14
Si         9.39538172      11.98265458      11.84151848         0.49422893      -0.65521540      -0.45555184         0.00000000       0.00000000       0.00000000        28.08500000         14
Si         5.93371269       7.15917154      15.06557150        -1.03156008      -0.96127684      -1.25712190         0.00000000       0.00000000       0.00000000        28.08500000         14
Si         6.54924158       3.63023436      15.48133430         0.45951877       1.02520437       0.45241934         0.00000000       0.00000000       0.00000000        28.08500000         14
Si         8.66653293       7.97989271      15.28991258         0.40851083      -3.08146549      -1.39598478         0.00000000       0.00000000       0.00000000        28.08500000         14
Si         5.05952655       3.25689902      13.11518996        -0.06740214       0.57674294      -0.40837277         0.00000000       0.00000000       0.00000000        28.08500000         14
Si         0.97848824       8.76281951       8.55985544         0.14704764      -0.28500871       0.09342045         0.00000000       0.00000000       0.00000000        28.08500000         14
Si         6.42590822      10.65828082      14.63215424         1.35703739      -0.52225135       1.41066265         0.00000000       0.00000000       0.00000000        28.08500000         14
Si         4.98675830      10.47796518       8.68705397         1.27441627      -0.00049754       0.67858435         0.00000000       0.00000000       0.00000000        28.08500000         14
Si        10.08734855       5.86401317      15.31962541         0.07520009       0.66578437       0.66721630         0.00000000       0.00000000       0.00000000        28.08500000         14
Si        13.65727386      12.77607277      18.73263514        -0.12813795       0.10321860       0.79860542         0.00000000       0.00000000       0.00000000        28.08500000         14
Si         9.31683867       4.65312707      13.28472127        -0.71131864       0.09110553      -0.40497972         0.00000000       0.00000000       0.00000000        28.08500000         14
Si         3.63134307       3.66204127      11.24499596        -0.19249397      -0.29453928      -0.56467361         0.00000000       0.00000000       0.00000000        28.08500000         14
Si         4.26551917      10.33372309       5.45651597        -2.32345804      -0.44552370       0.55078323         0.00000000       0.00000000       0.00000000        28.08500000         14
Si         1.57141573       3.33361947       5.74192032         0.27290009       0.49336199       0.01774130         0.00000000       0.00000000       0.00000000        28.08500000         14
Si        13.89054188      12.47587564      21.59190088        -0.10562167       0.26118816      -0.02914504         0.00000000       0.00000000       0.00000000        28.08500000         14
Si         0.18337142       4.57779906       1.11855491        -0.79216322      -0.73486524      -0.72728207         0.00000000       0.00000000       0.00000000        28.08500000         14
Si         6.81435637       8.88363059      16.26559589        -0.90054849       1.13199580       1.50736583         0.00000000       0.00000000       0.00000000        28.08500000         14
Si         2.11478799       2.18253074       3.54160976         0.40954699       0.58737487       0.16213793         0.00000000       0.00000000       0.00000000        28.08500000         14
Si         3.32923253       3.53002004       7.70118675        -0.41977153       0.98809896      -0.00961759         0.00000000       0.00000000       0.00000000        28.08500000         14
Si         6.51913009       4.05245628      10.64174615         0.03683455      -0.12254046       0.20662823         0.00000000       0.00000000       0.00000000        28.08500000         14
Si        11.78953662       6.87820098      16.97301307        -0.05428749       0.22362454      -0.21434472         0.00000000       0.00000000       0.00000000        28.08500000         14
Si         9.59209494       7.38367807      11.61732278        -1.78240466       1.40628446      -2.26412968         0.00000000       0.00000000       0.00000000        28.08500000         14
Si         2.63641228       6.85176264      10.57512018        -0.54766190      -1.30953881      -0.37692125         0.00000000       0.00000000       0.00000000        28.08500000         14
Si        11.08324656       4.43353386      20.08002866         0.82991247      -0.06968524      -0.12884990         0.00000000       0.00000000       0.00000000        28.08500000         14
Si         1.42539564       5.50972333       2.83188923        -0.66258876       0.08911122       1.33506980         0.00000000       0.00000000       0.00000000        28.08500000         14
Si         1.75215578       6.24335845       8.28472446         0.12070386       0.21745881       0.00928666         0.00000000       0.00000000       0.00000000        28.08500000         14
Si         1.61987574       8.77830820       3.19906492         3.19994049      -0.61231932      -3.31893730         0.00000000       0.00000000       0.00000000        28.08500000         14
63
pbc=[T, T, T] energy=-296.50704759 Lattice="14.39037400 2.30940100 14.78935600 0.00000000 9.15936400 0.01216700 0.00000000 0.00000000 9.04515600" Properties=species:S:1:pos:R:3:force:R:3:momenta:R:3:masses:R:1:Z:I:1
Si         5.86348740       8.09616231      13.02407456         0.99880939      -0.75194030      -0.01394214         0.00000000       0.00000000       0.00000000        28.08500000         14
Si        10.59835216       6.26923694      16.30018744         0.77368758      -0.05200631      -0.44967752         0.00000000       0.00000000       0.00000000        28.08500000         14
Si         5.03565235       4.20572611      12.51001278        -1.52370115       0.63537064      -1.11509169         0.00000000       0.00000000       0.00000000        28.08500000         14
Si        13.45350309       4.58382651      21.30051404         0.62811366      -1.73650834      -3.34962650         0.00000000       0.00000000       0.00000000        28.08500000         14
Si         4.19123960       7.77349019      11.15127915         0.44111399       0.72455081      -0.29148582         0.00000000       0.00000000       0.00000000        28.08500000         14
Si         8.68941148       7.96252137      13.47322942        -0.00256322       0.11690232       0.52820297         0.00000000       0.00000000       0.00000000        28.08500000         14
Si         9.80904014       5.47864979      13.08461240         0.36152029       0.00204731       0.36809136         0.00000000       0.00000000       0.00000000        28.08500000         14
Si         7.78398354      10.28906289      15.35361596        -0.03399430       0.20005185       0.13450509         0.00000000       0.00000000       0.00000000        28.08500000         14
Si         3.44901289       4.18310518       5.86739011         0.30841750      -0.45398611       0.09139763         0.00000000       0.00000000       0.00000000        28.08500000         14
Si         5.08456524       5.94988892       6.20018935         0.14510759       0.24754430       0.42871339         0.00000000       0.00000000       0.00000000        28.08500000         14
Si         0.94232486       9.04894411       5.07700289         1.04055773       0.08046709      -0.72384959         0.00000000       0.00000000       0.00000000        28.08500000         14
Si         2.69793610       5.75189623       4.13341112         0.09599616       0.28465133       0.40814966         0.00000000       0.00000000       0.00000000        28.08500000         14
Si        13.73106462       9.07858462      20.81125756        -1.40226831      -0.03191561      -0.77954426         0.00000000       0.00000000       0.00000000        28.08500000         14
Si         0.84261396       3.82320594       4.43680107         1.37154573      -1.88928441       3.29818007         0.00000000       0.00000000       0.00000000        28.08500000         14
Si         3.04991026       0.76903718      10.22087177        -0.68275446      -0.51416117       0.86608107         0.00000000       0.00000000       0.00000000        28.08500000         14
Si         4.21488298       2.37564121       9.03379111         0.53570377       0.74159274      -0.64749156         0.00000000       0.00000000       0.00000000        28.08500000         14
Si         7.17917051       5.84472878      13.91919625         0.05518519       0.45285546      -0.13043212         0.00000000       0.00000000       0.00000000        28.08500000         14
Si        10.68633490       4.80909286      18.10894942        -0.38748648      -0.76224202      -0.13521706         0.00000000       0.00000000       0.00000000        28.08500000         14
Si         4.23749026       1.58772620      12.75158929         0.29678527       0.57181207      -0.15706950         0.00000000       0.00000000       0.00000000        28.08500000         14
Si         6.29079517       3.38858730       6.86160068        -0.08085410      -0.27684326       0.73248548         0.00000000       0.00000000       0.00000000        28.08500000         14
Si        11.23680988       4.65328237      20.35901359        -0.24484196      -0.56164450       0.89346158         0.00000000       0.00000000       0.00000000        28.08500000         14
Si         7.15267784       9.73964590      11.85967292        -0.58747941      -0.77706964       0.67630156         0.00000000       0.00000000       0.00000000        28.08500000         14
Si        11.97943952       8.17803193      17.57763672        -0.34492417      -1.06301045      -0.25812344         0.00000000       0.00000000       0.00000000        28.08500000         14
Si         4.15219851       7.91683383       7.40169167        -0.42982392       0.17699662      -0.22606062         0.00000000       0.00000000       0.00000000        28.08500000         14
Si         1.50251334       7.37775524       7.52157308         1.71645373      -0.22671624       0.52230282         0.00000000       0.00000000       0.00000000        28.08500000         14
Si         1.68286790       1.42610140       3.26114972        -0.03788808       0.54456863      -0.12481753         0.00000000       0.00000000       0.00000000        28.08500000         14
Si         0.68629133       5.10154221       6.78949845        -1.91326479      -0.27130258      -1.38596501         0.00000000       0.00000000       0.00000000        28.08500000         14
Si         2.91102876       4.86849959      10.96542715         0.33034678      -1.42322243       0.08976303         0.00000000       0.00000000       0.00000000        28.08500000         14
Si         9.23424543       8.16095077      16.23590260        -0.43059537       0.93426928      -0.69741723         0.00000000       0.00000000       0.00000000        28.08500000         14
Si        13.17408520       7.80721081      14.26376299        -0.06067755      -0.08931176      -0.43741559         0.00000000       0.00000000       0.00000000        28.08500000         14
Si        11.10308013       7.94147486      12.68125415        -0.23921098       0.39552780      -0.07960535         0.00000000       0.00000000       0.00000000        28.08500000         14
Si         8.34279055      10.19758765       9.84655390         0.57291132       0.00264303      -0.72031404         0.00000000       0.00000000       0.00000000        28.08500000         14
Si         0.38124418       4.83991626       2.64808156         0.15832191      -0.95131061      -2.31056456         0.00000000       0.00000000       0.00000000        28.08500000         14
Si        14.18569971       9.12397584      16.82735788        -0.45978438       2.38768411      -1.24266664         0.00000000       0.00000000       0.00000000        28.08500000         14
Si         8.40272645       7.16488691       9.34890048        -1.45901385       0.94842529       0.10528263         0.00000000       0.00000000       0.00000000        28.08500000         14
Si         0.34913925       1.26205330       8.88740754        -0.16161408      -0.24176651      -0.07670244         0.00000000       0.00000000       0.00000000        28.08500000         14
Si        12.20440424      10.26969758      18.45658839        -0.33024007       0.86508258       1.18057702         0.00000000       0.00000000       0.00000000        28.08500000         14
Si         1.48403610       3.28459354       9.40608521        -0.07456004      -1.14404395       1.89604122         0.00000000       0.00000000       0.00000000        28.08500000         14
Si         8.57565558       4.38567861      10.29925029        -0.72617539       0.19664212      -0.04084013         0.00000000       0.00000000       0.00000000        28.08500000         14
Si         6.46389697       2.71912882      10.41671529        -0.87080579       0.18415402      -0.66680536         0.00000000       0.00000000       0.00000000        28.08500000         14
Si        10.42428619       7.50971863      19.40809957         1.42392200       0.11690240       0.41545216         0.00000000       0.00000000       0.00000000        28.08500000         14
Si        10.62157822      10.34642658      16.10727426         1.22371418      -2.91073254      -1.35526960         0.00000000       0.00000000       0.00000000        28.08500000         14
Si         2.36963411       4.78863138       8.10136780         3.01806387       1.05604239      -0.20587738         0.00000000       0.00000000       0.00000000        28.08500000         14
Si         1.28447039       2.06380955       6.35836000         1.61958071      -0.23743162      -0.20935575         0.00000000       0.00000000       0.00000000        28.08500000         14
Si         9.55066098       2.62854796      17.22776470        -1.87648666       1.74599263       1.89880467         0.00000000       0.00000000       0.00000000        28.08500000         14
Si        13.09688084       5.20880268      16.70471711        -0.08174380      -0.38745965      -1.28948022         0.00000000       0.00000000       0.00000000        28.08500000         14
Si        12.88023376       5.79427014      18.87958224        -0.18834153       0.80128671       1.27598803         0.00000000       0.00000000       0.00000000        28.08500000         14
Si         2.42595803       6.82559936       9.88989760        -0.71137368       0.71687290      -1.02349982         0.00000000       0.00000000       0.00000000        28.08500000         14
Si         3.66784731       8.55724395       4.51176142        -1.29457091      -0.53435674       0.70794553         0.00000000       0.00000000       0.00000000        28.08500000         14
Si         7.66029828       5.58915412      16.83216759        -0.61997433      -0.87321404      -0.72003732         0.00000000       0.00000000       0.00000000        28.08500000         14
Si         5.38861945       5.24120485       9.03702073         0.10534432      -0.16413153      -0.28163761         0.00000000       0.00000000       0.00000000        28.08500000         14
Si         8.29508646       2.67431661      12.05740750         1.32037478       0.11728976       0.53492742         0.00000000       0.00000000       0.00000000        28.08500000         14
Si        12.57381953       5.39413672      13.92358900        -2.10158451       2.01141257       3.83360950         0.00000000       0.00000000       0.00000000        28.08500000         14
Si         4.41834848       1.44555308       6.62831056         0.10716431       0.34996394       0.26386243         0.00000000       0.00000000       0.00000000        28.08500000         14
Si        14.09352937      11.12255889      21.82965600        -0.71928203       1.20754545       0.98304117         0.00000000       0.00000000       0.00000000        28.08500000         14
Si         6.53523006       2.96013766      13.60501244         0.89171494      -1.09363528       0.95977422         0.00000000       0.00000000       0.00000000        28.08500000         14
Si        13.85882237       2.58333576      17.52250347         0.30794801      -0.19717816      -0.18214900         0.00000000       0.00000000       0.00000000        28.08500000         14
Si         9.98696273       4.08756592      15.39706416        -0.21849289       0.54389289      -0.80249798         0.00000000       0.00000000       0.00000000        28.08500000         14
Si         6.12976688       8.74076643       9.63545617         0.14017017      -0.24840064       0.18170568         0.00000000       0.00000000       0.00000000        28.08500000         14
Si        10.83526088       2.67576113      13.42436731        -0.07284397       0.06359515      -0.21021294         0.00000000       0.00000000       0.00000000        28.08500000         14
Si         6.67473034       5.66324185      11.29599164        -0.33687907       0.29155903      -0.22788315         0.00000000       0.00000000       0.00000000        28.08500000         14
Si        12.24724438       2.89861337      15.63183180         0.54518724       0.53860329      -0.53033475         0.00000000       0.00000000       0.00000000        28.08500000         14
Si        10.54176921      10.52752238      11.35770304         0.17233313      -0.38997207      -0.17568614         0.00000000       0.00000000       0.00000000        28.08500000         14
63
pbc=[T, T, T] energy=-301.08013543 Lattice="13.12513900 0.47411400 0.15710900 0.00000000 9.28950300 -0.61529100 0.00000000 0.00000000 9.23632700" Properties=species:S:1:pos:R:3:force:R:3:momenta:R:3:masses:R:1:Z:I:1
Si         7.03280385       4.17248550       2.90696422        -2.18603536      -1.21455866      -0.02436766         0.00000000       0.00000000       0.00000000        28.08500000         14
Si         6.13575310       5.16805811       0.19546188        -0.39244860       2.73295998      -0.69663568         0.00000000       0.00000000       0.00000000        28.08500000         14
Si         4.78264315       8.85717410       3.96191306         0.30189101       0.77206536       0.30963052         0.00000000       0.00000000       0.00000000        28.08500000         14
Si         5.55868012       9.11178683       8.46292194        -1.25820334       0.84900123      -0.72463768         0.00000000       0.00000000       0.00000000        28.08500000         14
Si        12.18884408       3.93784622       4.72382710        -0.46355761       0.97880310      -0.15144521         0.00000000       0.00000000       0.00000000        28.08500000         14
Si        11.63295507       5.64887424       0.07610314         1.13653514      -0.46520653       0.37980955         0.00000000       0.00000000       0.00000000        28.08500000         14
Si        12.40240322       9.32085712       2.58034079        -0.30881898       0.41104603       0.47759183         0.00000000       0.00000000       0.00000000        28.08500000         14
Si        12.00057709       9.23197036       7.93785909        -1.77833307      -0.31335685       0.05358065         0.00000000       0.00000000       0.00000000        28.08500000         14
Si         3.01326941       8.94647151       7.79400255         0.35065616      -0.28563584       1.14935664         0.00000000       0.00000000       0.00000000        28.08500000         14
Si         2.65840503       1.76280684       6.55427792         1.48380521      -2.38053977      -0.78606197         0.00000000       0.00000000       0.00000000        28.08500000         14
Si         3.07444568       5.47533618       0.82986890        -0.35299692       0.17609037       0.30336875         0.00000000       0.00000000       0.00000000        28.08500000         14
Si         2.69300289       4.18045141       4.12511939         0.00394457      -1.06941979      -0.93925493         0.00000000       0.00000000       0.00000000        28.08500000         14
Si         9.23471655       9.49893066      -0.30629592         0.09173074      -0.45265384      -1.56703502         0.00000000       0.00000000       0.00000000        28.08500000         14
Si         9.72927179       1.17719970       3.41871864         1.81444277       0.19015799       0.95004277         0.00000000       0.00000000       0.00000000        28.08500000         14
Si         9.64021772       6.30638679       0.97041174        -0.80908140       0.55541518       0.94734131         0.00000000       0.00000000       0.00000000        28.08500000         14
Si         9.84709616       5.03110947       5.02089123         1.16955695       0.04181315       2.20671265         0.00000000       0.00000000       0.00000000        28.08500000         14
Si         4.41836804       1.50972997       1.07264373         0.63437913      -0.51360836       0.14940869         0.00000000       0.00000000       0.00000000        28.08500000         14
Si         5.13653627       2.13380458       5.50667581        -0.43185663      -1.21131644       0.21604771         0.00000000       0.00000000       0.00000000        28.08500000         14
Si         4.52591543       6.49515729       2.47013688        -0.86419844      -1.25223565       0.88415527         0.00000000       0.00000000       0.00000000        28.08500000         14
Si         4.56042142       4.51268611       5.42226331        -0.37330070      -2.04276317       1.43529916         0.00000000       0.00000000       0.00000000        28.08500000         14
Si        10.74725757       1.99355636       0.30312794         1.21785462       0.71405441      -0.09986827         0.00000000       0.00000000       0.00000000        28.08500000         14
Si        10.26480371       1.22615943       6.51838070         0.32592599       0.02731819       0.33650755         0.00000000       0.00000000       0.00000000        28.08500000         14
Si        11.69096819       6.98959650       2.58880610         0.01060723      -0.37136789      -0.56425773         0.00000000       0.00000000       0.00000000        28.08500000         14
Si        11.40277951       6.77583916       6.04539755        -1.44851750       1.78554751      -1.49801056         0.00000000       0.00000000       0.00000000        28.08500000         14
Si         4.65492242       3.13867080       2.67041255         0.04692889       0.71174864       0.81515019         0.00000000       0.00000000       0.00000000        28.08500000         14
Si         4.23762175       4.30867730       8.39239838        -0.34910599      -0.77924066      -1.05410666         0.00000000       0.00000000       0.00000000        28.08500000         14