6
Lattice="7.9999999630420415 0.0 0.0 0.0 7.9999999630420415 0.0 0.0 0.0 7.9999999630420415" Properties=species:S:1:pos:R:3:forces:R:3 energy=-831.3535934442434 free_energy=-831.3535934442434 pbc="T T T"
N        4.49577816       7.59414080       0.85450421      -0.48718060      -0.41281478      -0.13684774
N        5.08276195       6.62297170      -0.04745861      -0.28467820      -0.05887312       0.17803501
H        4.61350285       7.30776912       1.83688737      -0.00271740       0.07384080      -0.15529900
H        3.47624687       7.57227366       0.66768517       0.58617912       0.08340710       0.13541460
H        5.07452766       5.66413595       0.33653165       0.09966881       0.38483475      -0.08407996
H        6.04560554       6.90758859      -0.21183363       0.08872826      -0.07039475       0.06277708
6
Lattice="7.9999999630420415 0.0 0.0 0.0 7.9999999630420415 0.0 0.0 0.0 7.9999999630420415" Properties=species:S:1:pos:R:3:forces:R:3 energy=-831.3538210674694 free_energy=-831.3538210674694 pbc="T T T"
N        4.41066154       7.49187055       0.88988376       0.48523633       0.23818828       0.00472157
N        5.29886605       6.67795725       0.10151803      -0.26502854       0.02771932      -0.20826193
H        3.44755924       7.18100610       0.84065143      -0.41298962      -0.13304405      -0.07670449
H        4.45124366       8.44573793       0.52176576       0.00261867      -0.16628507       0.01716340
H        4.82225932       6.26107561      -0.71010067       0.03527682       0.17595113       0.05602408
H        5.57190834       5.89494056       0.68646067       0.15488660      -0.14252962       0.20705737
6
Lattice="7.9999999630420415 0.0 0.0 0.0 7.9999999630420415 0.0 0.0 0.0 7.9999999630420415" Properties=species:S:1:pos:R:3:forces:R:3 energy=-831.3560215160257 free_energy=-831.3560215160257 pbc="T T T"
N        4.55057783       7.60543644       0.85921312       0.37927371      -0.01460901       0.24843233
N        5.04264169       6.61170329      -0.05209789      -0.49794529      -0.13283939       0.10486964
H        4.60862750       7.32231304       1.84926911       0.13078045      -0.04766234      -0.26468427
H        3.56551208       7.73785550       0.66436159      -0.26999874       0.05671699      -0.18267482
H        4.89288746       5.66439787       0.30104943       0.00088575      -0.10186582      -0.00797942
H        6.04009996       6.72701032      -0.18589699       0.25700387       0.24025982       0.10203680
6
Lattice="7.9999999630420415 0.0 0.0 0.0 7.9999999630420415 0.0 0.0 0.0 7.9999999630420415" Properties=species:S:1:pos:R:3:forces:R:3 energy=-831.3564691432904 free_energy=-831.3564691432904 pbc="T T T"
N        4.42680714       7.49738971       0.89459827       0.24258975       0.30289652      -0.01246342
N        5.27997347       6.66573737       0.09620209       0.11578860      -0.22417731       0.32757757
H        3.44169785       7.23227698       0.84794525      -0.08849917      -0.03951940      -0.10137371
H        4.51934617       8.45265090       0.53485779      -0.10586363      -0.20269986       0.09655212
H        4.80029101       6.28023614      -0.71522808      -0.16382581      -0.01236444      -0.24743783
H        5.55086440       5.86450125       0.67541226      -0.00018975       0.17586448      -0.06285473
6
Lattice="7.9999999630420415 0.0 0.0 0.0 7.9999999630420415 0.0 0.0 0.0 7.9999999630420415" Properties=species:S:1:pos:R:3:forces:R:3 energy=-831.3540364455728 free_energy=-831.3540364455728 pbc="T T T"
N        4.19604854       6.65984065       0.40864858      -0.22078449      -0.07171347      -0.43561404
N        5.29922293       7.56503433       0.47220011      -0.07941238       0.20089032       0.10217050
H        4.38315802       5.77553686       0.87933921       0.06691039      -0.19464022       0.08231772
H        3.99846825       6.44635757      -0.57826216       0.13098639       0.13471321       0.33832761
H        6.21282125       7.09738889       0.45865889      -0.10788426       0.01317536       0.10825373
H        5.19831592       8.07814664       1.35291303       0.21018434      -0.08242494      -0.19545552
6
Lattice="7.9999999630420415 0.0 0.0 0.0 7.9999999630420415 0.0 0.0 0.0 7.9999999630420415" Properties=species:S:1:pos:R:3:forces:R:3 energy=-831.3582997891399 free_energy=-831.3582997891399 pbc="T T T"
N        4.21945732       6.61717626       0.39019248       0.12836541       0.01265317       0.44777998
N        5.26411426       7.59738456       0.48347694       0.00103538      -0.02196648      -0.13353410
H        4.46022689       5.74427278       0.88183104      -0.06205717       0.18173997      -0.17467664
H        4.11206767       6.40857182      -0.59357442      -0.09251163      -0.18557708      -0.30159991
H        6.19075721       7.17036874       0.54940953       0.06078859       0.00168433       0.03564269
H        5.11161087       8.14641578       1.32523765      -0.03562058       0.01146609       0.12638798
6
Lattice="7.9999999630420415 0.0 0.0 0.0 7.9999999630420415 0.0 0.0 0.0 7.9999999630420415" Properties=species:S:1:pos:R:3:forces:R:3 energy=-831.3545930544298 free_energy=-831.3545930544298 pbc="T T T"
N        5.23046799       7.38441410       0.92711722       0.59415931      -0.11666818       0.02369657
N        4.35429899       6.60973309       0.09542026      -0.19655827       0.17221249      -0.27292183
H        5.31128071       8.35930766       0.60950439      -0.00023063      -0.19052260       0.04467549
H        6.16679952       6.95229300       0.85092483      -0.45713006       0.32057260       0.04228899
H        4.26637757       7.02270138      -0.84201564       0.12363921      -0.12490831       0.03822125
H        3.42183707       6.67822248       0.50241375      -0.06387957      -0.06068601       0.12403953
6
Lattice="7.9999999630420415 0.0 0.0 0.0 7.9999999630420415 0.0 0.0 0.0 7.9999999630420415" Properties=species:S:1:pos:R:3:forces:R:3 energy=-831.3574468483126 free_energy=-831.3574468483126 pbc="T T T"
N        4.21289774       6.63018465       0.39566607       0.03510019      -0.25759805       0.12495870
N        5.27353817       7.58873318       0.48122938       0.19171482      -0.22133676      -0.35234321
H        4.43950793       5.74843265       0.88556235      -0.08239769       0.28636381      -0.24739849
H        4.07892742       6.41985765      -0.59436690      -0.00923849      -0.07969263       0.08845906
H        6.20105732       7.14709927       0.52201006      -0.14534729       0.10199412       0.05351828
H        5.13511961       8.12374041       1.32711609       0.01016871       0.17026951       0.33280565
6
Lattice="7.9999999630420415 0.0 0.0 0.0 7.9999999630420415 0.0 0.0 0.0 7.9999999630420415" Properties=species:S:1:pos:R:3:forces:R:3 energy=-831.3550087083183 free_energy=-831.3550087083183 pbc="T T T"
N        5.22587153       7.38681554       0.92739560       0.54554850      -0.00507047       0.04538383
N        4.36037240       6.60654593       0.09386543      -0.08064111       0.14652845      -0.37681779
H        5.29219723       8.36613921       0.61839009       0.00482776      -0.21341519       0.05044916
H        6.16672748       6.97062296       0.85401961      -0.38079812       0.26743304       0.02205981
H        4.26473243       7.01837337      -0.84441965       0.14690615      -0.12644274       0.07435065
H        3.43229909       6.66288897       0.50177247      -0.23584318      -0.06903309       0.18457435
6
Lattice="7.9999999630420415 0.0 0.0 0.0 7.9999999630420415 0.0 0.0 0.0 7.9999999630420415" Properties=species:S:1:pos:R:3:forces:R:3 energy=-831.355641781164 free_energy=-831.355641781164 pbc="T T T"
N        4.43259801       7.49963470       0.89614195       0.03875912       0.21168227       0.00679028
N        5.27375809       6.66147301       0.09471867       0.18826826      -0.29019630       0.41232704
H        3.43791727       7.24861412       0.84946644       0.13252160       0.01713049      -0.09850282
H        4.54115845       8.45301148       0.53998903      -0.12833790      -0.13969395       0.08827960
H        4.79187629       6.28682587      -0.71863407      -0.18388247      -0.04748056      -0.27727908
H        5.54421898       5.85534946       0.67174404      -0.04732861       0.24855831      -0.13161477
6
Lattice="7.9999999630420415 0.0 0.0 0.0 7.9999999630420415 0.0 0.0 0.0 7.9999999630420415" Properties=species:S:1:pos:R:3:forces:R:3 energy=-831.3553405511445 free_energy=-831.3553405511445 pbc="T T T"
N        4.55755140       7.60646118       0.85939785       0.15815087       0.04439987       0.30149296
N        5.03805016       6.61088864      -0.05254822      -0.64731559      -0.29814127       0.14584223
H        4.61182582       7.32149066       1.85167773       0.09711931      -0.02197342      -0.35901985
H        3.57008008       7.75807642       0.66027147      -0.02392771       0.00887313      -0.11240092
H        4.87374495       5.66181389       0.29791627       0.00088677      -0.00254334      -0.05282229
H        6.03480192       6.70872512      -0.17922317       0.41508609       0.26938476       0.07690761
6
Lattice="7.9999999630420415 0.0 0.0 0.0 7.9999999630420415 0.0 0.0 0.0 7.9999999630420415" Properties=species:S:1:pos:R:3:forces:R:3 energy=-831.3534652786254 free_energy=-831.3534652786254 pbc="T T T"
N        5.16688318       7.43525614       0.94117747      -0.11402354       0.14027347       0.02367935
N        4.43918375       6.55798459       0.06563804       0.65199037       0.21263512      -0.08526318
H        5.00537011       8.43439844       0.74948401       0.05835401      -0.29421313      -0.04175626
H        6.16996879       7.24835526       0.86487453      -0.22190960      -0.02658572      -0.15282534
H        4.30319793       6.94855540      -0.87503219      -0.02932549      -0.01990599       0.20318066
H        3.53865836       6.38756061       0.49155484      -0.34508575      -0.01220400       0.05298452
6
Lattice="7.9999999630420415 0.0 0.0 0.0 7.9999999630420415 0.0 0.0 0.0 7.9999999630420415" Properties=species:S:1:pos:R:3:forces:R:3 energy=-831.3548757807082 free_energy=-831.3548757807082 pbc="T T T"
N        5.18455836       7.41719767       0.93428049       0.36773152      -0.00318225       0.14204754
N        4.41615812       6.57537866       0.07197436      -0.28331371      -0.10717901       0.34448566
H        5.10161116       8.41090973       0.71103273      -0.00853426       0.04102041      -0.07232128
H        6.17764744       7.16026128       0.87356800      -0.36033831       0.02112984      -0.11829980
H        4.28351461       6.96583530      -0.86470722       0.02307231       0.07749922       0.00752716
H        3.49187518       6.48651422       0.51491232       0.26138272      -0.02928846      -0.30343902
6
Lattice="7.9999999630420415 0.0 0.0 0.0 7.9999999630420415 0.0 0.0 0.0 7.9999999630420415" Properties=species:S:1:pos:R:3:forces:R:3 energy=-831.3562111793714 free_energy=-831.3562111793714 pbc="T T T"
N        4.20967710       6.63646381       0.39858189      -0.03741804      -0.31673060      -0.09348017
N        5.27839957       7.58422724       0.47979421       0.23303502      -0.24061823      -0.36750294
H        4.42861244       5.75239136       0.88578900      -0.06713819       0.25646086      -0.22768096
H        4.06222186       6.42481579      -0.59464121       0.03907640      -0.01657359       0.28545313
H        6.20543478       7.13607197       0.50867512      -0.21583691       0.13233905       0.06685537
H        5.14685792       8.11343841       1.33013417       0.04828197       0.18512251       0.33635532
6
Lattice="7.9999999630420415 0.0 0.0 0.0 7.9999999630420415 0.0 0.0 0.0 7.9999999630420415" Properties=species:S:1:pos:R:3:forces:R:3 energy=-831.3551640853202 free_energy=-831.3551640853202 pbc="T T T"
N        4.41575466       7.49349831       0.89146910       0.50031276       0.32967687      -0.01242846
N        5.29260903       6.67392348       0.09971568      -0.13554110      -0.04924202      -0.02557476
H        3.44722095       7.19867626       0.84351740      -0.39759925      -0.12943525      -0.09192465
H        4.47423309       8.44904659       0.52582533      -0.03725426      -0.21597369       0.06097757
H        4.81520338       6.26708269      -0.71138898      -0.03960759       0.11031370      -0.05743767
H        5.56446042       5.88479679       0.68234256       0.10968943      -0.04533960       0.12638798
6
Lattice="7.9999999630420415 0.0 0.0 0.0 7.9999999630420415 0.0 0.0 0.0 7.9999999630420415" Properties=species:S:1:pos:R:3:forces:R:3 energy=-831.3540036558552 free_energy=-831.3540036558552 pbc="T T T"
N        4.14189715       7.28549412       0.66245225      -0.31683961      -0.16494527       0.51840587
N        5.37069822       6.70191427       0.20547466       0.06405646       0.12740382       0.10360260
H        4.22627683       8.27687915       0.92179798       0.12751900      -0.14743425      -0.13233057
H        3.85861025       6.78284856       1.51958046       0.17423723       0.22080480      -0.43835869
H        6.18926584       7.19969608       0.56972660      -0.00794574      -0.04727616       0.02958928
H        5.39734312       6.80027232      -0.80800368      -0.04102735       0.01144732      -0.08090850
6
Lattice="7.9999999630420415 0.0 0.0 0.0 7.9999999630420415 0.0 0.0 0.0 7.9999999630420415" Properties=species:S:1:pos:R:3:forces:R:3 energy=-831.3553759259436 free_energy=-831.3553759259436 pbc="T T T"
N        5.19322515       7.41013590       0.93204266       0.02039630       0.07376006       0.18092442
N        4.40667592       6.58217500       0.07549532      -0.48007150      -0.17318514       0.42512188
H        5.14024483       8.39993916       0.69370972      -0.02128925       0.14447260      -0.07169315
H        6.16731593       7.12610025       0.87315653       0.09168657      -0.09457700      -0.11658462
H        4.27608505       6.97415983      -0.85819217       0.05725230       0.11661573      -0.10875586
H        3.47671039       6.52517931       0.51714988       0.33202558      -0.06708600      -0.30901266
6
Lattice="7.9999999630420415 0.0 0.0 0.0 7.9999999630420415 0.0 0.0 0.0 7.9999999630420415" Properties=species:S:1:pos:R:3:forces:R:3 energy=-831.3536267781888 free_energy=-831.3536267781888 pbc="T T T"
N        5.25214794       7.37356329       0.92604925      -0.07246577      -0.24351149      -0.03167882
N        4.32803634       6.62376440       0.10080732      -0.36945955       0.24762089       0.22235312
H        5.38749731       8.32550745       0.57533482      -0.03443633       0.01749970      -0.00246569
H        6.14878704       6.89242276       0.84087839       0.02210686       0.07452882       0.05504500
H        4.27715081       7.03508657      -0.83315265      -0.00753487      -0.06719424      -0.16444004
H        3.38493856       6.73724424       0.50753323       0.46178993      -0.02894394      -0.07881357
6
Lattice="7.9999999630420415 0.0 0.0 0.0 7.9999999630420415 0.0 0.0 0.0 7.9999999630420415" Properties=species:S:1:pos:R:3:forces:R:3 energy=-831.3541048822032 free_energy=-831.3541048822032 pbc="T T T"
N        4.51989329       7.59988273       0.85884275      -0.03184414      -0.08813433      -0.47862834
N        5.06370926       6.61642965      -0.04948563       0.32966171       0.30392496      -0.03558947
H        4.60369734       7.32010869       1.83256365       0.18636796      -0.16128633       0.33208111
H        3.51702230       7.64195972       0.67066816       0.02382898       0.08252290      -0.08885553
H        4.99018007       5.66595233       0.31922943       0.09341512      -0.04450322       0.04402294
H        6.06354609       6.82934744      -0.20937132      -0.60142962      -0.09252398       0.22696953
6
Lattice="7.9999999630420415 0.0 0.0 0.0 7.9999999630420415 0.0 0.0 0.0 7.9999999630420415" Properties=species:S:1:pos:R:3:forces:R:3 energy=-831.3564375780851 free_energy=-831.3564375780851 pbc="T T T"
N        5.20606815       7.40008288       0.92956261      -0.27565080       0.30522234       0.17197106
N        4.39028750       6.59156416       0.08260884      -0.27927323      -0.08673102       0.06054639
H        5.19743283       8.38791811       0.66557193      -0.00520648       0.03097999      -0.01864410
H        6.15681573       7.07125555       0.86864556       0.46213548      -0.18135559      -0.09705760
H        4.26720014       6.99029364      -0.85194616       0.13008882       0.04733941      -0.06800851
H        3.46372547       6.58055828       0.51111831      -0.03209380      -0.11545513      -0.04880725
6
Lattice="7.9999999630420415 0.0 0.0 0.0 7.9999999630420415 0.0 0.0 0.0 7.9999999630420415" Properties=species:S:1:pos:R:3:forces:R:3 energy=-831.3548349636322 free_energy=-831.3548349636322 pbc="T T T"
N        4.19963947       6.65420261       0.40654236      -0.21157377      -0.17422772      -0.48035997
N        5.29389505       7.56987433       0.47423421       0.04946443       0.05651568      -0.04216352
H        4.39448335       5.76965958       0.88137833       0.03438568      -0.07433445      -0.00372167
H        4.01364762       6.44030937      -0.58550903       0.13155692       0.11971365       0.45935149
H        6.21240525       7.10640774       0.47053637      -0.18491862       0.07446480       0.10409805
H        5.18438584       8.08663957       1.34674807       0.18108537      -0.00213196      -0.03720438
6
Lattice="7.9999999630420415 0.0 0.0 0.0 7.9999999630420415 0.0 0.0 0.0 7.9999999630420415" Properties=species:S:1:pos:R:3:forces:R:3 energy=-831.3541217532612 free_energy=-831.3541217532612 pbc="T T T"
N        5.16365243       7.43906922       0.94264707      -0.38243540       0.11098347       0.01912746
N        4.44464174       6.55479330       0.06432380       0.66685237       0.21185530      -0.01762903
H        4.98677265       8.43582247       0.75654341       0.05541987      -0.26562735      -0.04957113
H        6.16296735       7.26616468       0.86124359       0.00860908      -0.06940873      -0.16352036
H        4.30692709       6.94493857      -0.87445043      -0.04295002       0.00261918       0.14892807
H        3.54493748       6.36759150       0.48645707      -0.30549616       0.00957813       0.06266473
6
Lattice="7.9999999630420415 0.0 0.0 0.0 7.9999999630420415 0.0 0.0 0.0 7.9999999630420415" Properties=species:S:1:pos:R:3:forces:R:3 energy=-831.353493034237 free_energy=-831.353493034237 pbc="T T T"
N        5.08688420       7.48093943       0.96544542      -0.32131770       0.08269362       0.00885205
N        4.54935827       6.51359118       0.05458464       0.04834240       0.00093100      -0.22606219
H        4.71235752       8.42873009       0.80996475       0.02523949      -0.21890527      -0.01496562
H        6.07872643       7.51970405       0.76423638       0.33650701       0.07567579       0.08334951
H        4.33665030       6.91828420      -0.86030424      -0.00672961       0.02145251      -0.07307307
H        3.67823211       6.14312228       0.42448240      -0.08204184       0.03815234       0.22189957
6
Lattice="7.9999999630420415 0.0 0.0 0.0 7.9999999630420415 0.0 0.0 0.0 7.9999999630420415" Properties=species:S:1:pos:R:3:forces:R:3 energy=-831.3545919659744 free_energy=-831.3545919659744 pbc="T T T"
N        5.24641722       7.37652626       0.92632799       0.18960009      -0.27380372      -0.02084111
N        4.33498356       6.62004503       0.09940890      -0.42032497       0.23047446       0.14089980
H        5.36856773       8.33443529       0.58376849      -0.02425116      -0.03206397       0.00738087
H        6.15520775       6.90571940       0.84297542      -0.18432856       0.19526911       0.06197953
H        4.27412630       7.03259070      -0.83474372       0.02612292      -0.07707936      -0.12897322
H        3.39195643       6.72281038       0.50643133       0.41318168      -0.04279678      -0.06044586
6
Lattice="7.9999999630420415 0.0 0.0 0.0 7.9999999630420415 0.0 0.0 0.0 7.9999999630420415" Properties=species:S:1:pos:R:3:forces:R:3 energy=-831.3572450759013 free_energy=-831.3572450759013 pbc="T T T"
N        5.21001915       7.39706958       0.92896692      -0.17576035       0.32497201       0.15080343
N        4.38437784       6.59454164       0.08519483      -0.14845627      -0.03145205      -0.12334842
H        5.21638756       8.38455811       0.65590302       0.00174475      -0.04687970       0.00504322
H        6.15717829       7.05138209       0.86620699       0.37145987      -0.13109978      -0.07916092
H        4.26526729       6.99630627      -0.85068640       0.15027404       0.00068057      -0.01540836
H        3.46005162       6.59802985       0.50803395      -0.19926204      -0.11622132       0.06207106
6
Lattice="7.9999999630420415 0.0 0.0 0.0 7.9999999630420415 0.0 0.0 0.0 7.9999999630420415" Properties=species:S:1:pos:R:3:forces:R:3 energy=-831.3542793071738 free_energy=-831.3542793071738 pbc="T T T"
N        4.62717781       7.62611237       0.86408139       0.68883582      -0.23348959       0.06416522
N        4.97894640       6.58625990      -0.05548134       0.11898088       0.16290535      -0.11978255
H        4.64743078       7.30126405       1.83196114      -0.18223311       0.06716107       0.10097828
H        3.70851723       7.95677295       0.62875317      -0.59377211       0.13896890      -0.03941681
H        4.66318163       5.66152243       0.24602464      -0.04222960      -0.05872297       0.09468833
H        5.99766459       6.56538958      -0.08834959       0.01041811      -0.07682276      -0.10063246
6
Lattice="7.9999999630420415 0.0 0.0 0.0 7.9999999630420415 0.0 0.0 0.0 7.9999999630420415" Properties=species:S:1:pos:R:3:forces:R:3 energy=-831.3502004567893 free_energy=-831.3502004567893 pbc="T T T"
N        4.72721888       7.65059401       0.86946391       0.50094423      -0.49835050       0.20295903
N        4.91294382       6.55877887      -0.06341734      -0.13584861       0.32114133       0.14069231
H        4.58711475       7.31461877       1.82689182       0.08453453      -0.05784956       0.04778061
H        3.88614489       8.14862984       0.63017032      -0.48909144       0.21340953      -0.39922959
H        4.40114501       5.71518716       0.21417351      -0.02504692       0.03723060       0.05974190
H        5.90412012       6.32750888      -0.03497188       0.06450821      -0.01558140      -0.05194425
6
Lattice="7.9999999630420415 0.0 0.0 0.0 7.9999999630420415 0.0 0.0 0.0 7.9999999630420415" Properties=species:S:1:pos:R:3:forces:R:3 energy=-831.3512725853135 free_energy=-831.3512725853135 pbc="T T T"
N        4.39684572       7.48746809       0.88518217      -0.03753271      -0.29496390       0.06642445
N        5.31646836       6.69032756       0.10586799      -0.42046510       0.06521552      -0.32250530
H        3.43927218       7.12487963       0.83034308       0.03584709       0.05426390       0.00033244
H        4.38269804       8.43258367       0.50898154       0.10647350       0.04611813      -0.14669249
H        4.84553431       6.24859136      -0.70316440       0.15088853       0.25656190       0.21534043
H        5.59896056       5.92093068       0.70507842       0.16478894      -0.12719556       0.18710046
6
Lattice="7.9999999630420415 0.0 0.0 0.0 7.9999999630420415 0.0 0.0 0.0 7.9999999630420415" Properties=species:S:1:pos:R:3:forces:R:3 energy=-831.3515226579312 free_energy=-831.3515226579312 pbc="T T T"
N        5.06966020       7.48733608       0.96966155      -0.03256354      -0.12002681       0.01247474
N        4.57265220       6.50676826       0.04973843      -0.35329991      -0.30684779       0.16989233
H        4.66088557       8.41027765       0.81259070      -0.16297143       0.13605429      -0.03234216
H        6.05561536       7.57819375       0.75221187       0.34582700       0.04935824       0.12884055
H        4.34177335       6.91373600      -0.85474855      -0.08081003       0.08219585      -0.24072005
H        3.70520264       6.11061705       0.43273587       0.28381791       0.15926596      -0.03814540
6
Lattice="7.9999999630420415 0.0 0.0 0.0 7.9999999630420415 0.0 0.0 0.0 7.9999999630420415" Properties=species:S:1:pos:R:3:forces:R:3 energy=-831.3498822196549 free_energy=-831.3498822196549 pbc="T T T"
N        4.19930912       7.40355151       0.70229631       0.35952764       0.01540117      -0.13398199
N        5.28212456       6.59717953       0.15905906      -0.43636557       0.35326983      -0.40709022
H        4.53653778       8.33359483       0.98146201      -0.11960335      -0.14940603       0.04000225
H        3.84668689       6.93208740       1.53470835       0.08060228      -0.01981549       0.02519912
H        6.18449899       6.84856731       0.57533785      -0.00683991       0.03345134      -0.03462993
H        5.32190425       6.85218805      -0.84240602       0.12267864      -0.23290107       0.51050102
6
Lattice="7.9999999630420415 0.0 0.0 0.0 7.9999999630420415 0.0 0.0 0.0 7.9999999630420415" Properties=species:S:1:pos:R:3:forces:R:3 energy=-831.3511870055113 free_energy=-831.3511870055113 pbc="T T T"
N        4.24569573       7.45629468       0.71462517      -0.10719366      -0.10720935       0.31827506
N        5.21860820       6.56613338       0.13463086      -0.04387279      -0.04014289       0.34779081
H        4.66996664       8.33366240       1.03718298       0.02481552      -0.01074464      -0.09514059
H        3.86711044       7.00422506       1.56312291       0.18952527       0.06304345      -0.49210992
H        6.13362832       6.67002393       0.58029440       0.08029478      -0.02209143      -0.00276111
H        5.33883077       6.80664708      -0.84680272      -0.14356911       0.11714460      -0.07605426
6
Lattice="7.9999999630420415 0.0 0.0 0.0 7.9999999630420415 0.0 0.0 0.0 7.9999999630420415" Properties=species:S:1:pos:R:3:forces:R:3 energy=-831.348490629484 free_energy=-831.348490629484 pbc="T T T"
N        4.27308559       7.48519160       0.72170563       0.16491750       0.27088552       0.00061424
N        5.18178061       6.54924625       0.12956846       0.27150464      -0.05585902      -0.39512713
H        4.74717743       8.33762175       1.05793941      -0.05587444      -0.16895824      -0.14557843
H        3.89051047       7.03154926       1.54823996      -0.14036886      -0.07565317       0.05377128
H        6.10484028       6.56610678       0.57469438       0.00498588       0.01989417       0.01362582
H        5.33307208       6.79521209      -0.86120258      -0.24516471       0.00969074       0.47269449
6
Lattice="7.9999999630420415 0.0 0.0 0.0 7.9999999630420415 0.0 0.0 0.0 7.9999999630420415" Properties=species:S:1:pos:R:3:forces:R:3 energy=-831.3506139337671 free_energy=-831.3506139337671 pbc="T T T"
N        4.29478214       7.44533957       0.81553622       0.59626505       0.08352691      -0.03171893
N        5.23158140       6.72434664      -0.01485215      -0.35517296       0.49024947      -0.10179537
H        4.55728128       7.42122814       1.81024032      -0.15473387      -0.07278613      -0.22456195
H        3.39168870       7.00556561       0.69482173      -0.27371399      -0.16475372       0.11175043
H        5.68306182       5.96320040       0.48228301       0.18415809      -0.20014393       0.17237396
H        5.94308712       7.39375719      -0.31354380       0.00319794      -0.13609286       0.07395187
6
Lattice="7.9999999630420415 0.0 0.0 0.0 7.9999999630420415 0.0 0.0 0.0 7.9999999630420415" Properties=species:S:1:pos:R:3:forces:R:3 energy=-831.3518970865733 free_energy=-831.3518970865733 pbc="T T T"
N        4.21801891       7.42682607       0.71064033       0.38051196       0.08175722      -0.60679140
N        5.25488325       6.58253637       0.14463972      -0.15437520       0.14035061       0.60881537
H        4.59505426       8.32860581       1.00618098       0.02523538       0.14261832       0.01124215
H        3.85793498       6.97704238       1.53849035      -0.10907931      -0.37184811       0.34722722
H        6.16762225       6.77075105       0.58376640      -0.16838566      -0.04609371      -0.16488742
H        5.32873705       6.82961854      -0.83680831       0.02609284       0.05321566      -0.19560567
6
Lattice="7.9999999630420415 0.0 0.0 0.0 7.9999999630420415 0.0 0.0 0.0 7.9999999630420415" Properties=species:S:1:pos:R:3:forces:R:3 energy=-831.3507493104019 free_energy=-831.3507493104019 pbc="T T T"
N        4.15844418       7.32584969       0.67659902       0.12811010       0.10207511      -0.24939958
N        5.34351772       6.66087979       0.19519524      -0.01321984       0.30517040      -0.57376790
H        4.32402272       8.30161338       0.93668168       0.06620771       0.00025608      -0.00339514
H        3.85629913       6.83215542       1.50339991      -0.12552306      -0.17694101       0.38644298
H        6.20632423       7.08749138       0.55485635      -0.10517097      -0.01739428       0.13730925
H        5.35928431       6.84318834      -0.81890799       0.04959632      -0.21316656       0.30281039
6
Lattice="7.9999999630420415 0.0 0.0 0.0 7.9999999630420415 0.0 0.0 0.0 7.9999999630420415" Properties=species:S:1:pos:R:3:forces:R:3 energy=-831.3489310457319 free_energy=-831.3489310457319 pbc="T T T"
N        5.32198538       7.30020642       0.90223495      -0.56484900       0.16103333      -0.26731425
N        4.23552495       6.71460632       0.13649857       0.17728348       0.00365714       0.13704725
H        5.65264728       8.15905227       0.45722554      -0.02607767       0.15617523       0.04204268